version 3
run STM-16-0-20250504-12:13:50-1600
attr configname STM-16
attr datetime 20250504-12:13:50
attr datetimef 20250504-121350
attr experiment STM-16
attr inifile omnetpp.ini
attr iterationvars ""
attr iterationvarsd ""
attr iterationvarsf ""
attr measurement ""
attr network p2pNetworkExtended
attr processid 1600
attr repetition 0
attr replication #0
attr resultdir results
attr runnumber 0
attr seedset 0
config image-path ../../../../../images
config *.visualizer.*.enabled true
config *.visualizer.*.animationSpeed 20
config *.visualizer.*.displayRoutes false
config *.visualizer.*.displayPacketDrops true
config *.visualizer.*.displayLabels true
config **.scalar-recording true
config **.vector-recording true
config *.lteA.stmLevel 16
config *.lteB.stmLevel 16
config *.lteA.numTributaries 2
config *.lteB.numTributaries 2
config *.sourceA_1.packetInterval 25us
config *.sourceA_1.packetSize 3888
config *.sourceA_2.packetInterval 25us
config *.sourceA_2.packetSize 3888
config *.sourceB_1.packetInterval 25us
config *.sourceB_1.packetSize 3888
config *.sourceB_2.packetInterval 25us
config *.sourceB_2.packetSize 3888
config network p2pNetworkExtended
config sim-time-limit 1s
config *.visualizer.*.enabled true
config *.visualizer.*.animationSpeed 20
config *.visualizer.*.displayRoutes false
config *.visualizer.*.displayPacketDrops true
config *.visualizer.*.displayLabels true
config **.scalar-recording true
config **.vector-recording true

vector 0 p2pNetworkExtended.lteA stmWorkingSent:vector ETV
attr recordingmode vector
attr source stmWorkingSent
attr title "STM sent on working line"
vector 1 p2pNetworkExtended.lteA stmProtectionSent:vector ETV
attr recordingmode vector
attr source stmProtectionSent
attr title "STM sent on protection line"
vector 2 p2pNetworkExtended.lteA stmWorkingReceived:vector ETV
attr recordingmode vector
attr source stmWorkingReceived
attr title "STM received on working line"
vector 3 p2pNetworkExtended.lteA stmProtectionReceived:vector ETV
attr recordingmode vector
attr source stmProtectionReceived
attr title "STM received on protection line"
vector 4 p2pNetworkExtended.lteA loadSTM:vector ETV
attr recordingmode vector
attr title "load STM"
vector 5 p2pNetworkExtended.lteA tramasSTM:vector ETV
attr recordingmode vector
attr title "\"tramas STM\""
vector 6 p2pNetworkExtended.lteB stmWorkingSent:vector ETV
attr recordingmode vector
attr source stmWorkingSent
attr title "STM sent on working line"
vector 7 p2pNetworkExtended.lteB stmProtectionSent:vector ETV
attr recordingmode vector
attr source stmProtectionSent
attr title "STM sent on protection line"
vector 8 p2pNetworkExtended.lteB stmWorkingReceived:vector ETV
attr recordingmode vector
attr source stmWorkingReceived
attr title "STM received on working line"
vector 9 p2pNetworkExtended.lteB stmProtectionReceived:vector ETV
attr recordingmode vector
attr source stmProtectionReceived
attr title "STM received on protection line"
vector 10 p2pNetworkExtended.lteB loadSTM:vector ETV
attr recordingmode vector
attr title "load STM"
vector 11 p2pNetworkExtended.lteB tramasSTM:vector ETV
attr recordingmode vector
attr title "\"tramas STM\""
0	97	0.000125	1
0	245	0.00025	2
0	401	0.000375	3
0	553	0.0005	4
0	709	0.000625	5
0	861	0.00075	6
0	1017	0.000875	7
0	1169	0.001	8
0	1325	0.001125	9
0	1477	0.00125	10
0	1633	0.001375	11
0	1785	0.0015	12
0	1941	0.001625	13
0	2093	0.00175	14
0	2249	0.001875	15
0	2401	0.002	16
0	2557	0.002125	17
0	2709	0.00225	18
0	2865	0.002375	19
0	3017	0.0025	20
0	3173	0.002625	21
0	3325	0.00275	22
0	3481	0.002875	23
0	3633	0.003	24
0	3789	0.003125	25
0	3941	0.00325	26
0	4097	0.003375	27
0	4249	0.0035	28
0	4405	0.003625	29
0	4557	0.00375	30
0	4713	0.003875	31
0	4865	0.004	32
0	5021	0.004125	33
0	5173	0.00425	34
0	5329	0.004375	35
0	5481	0.0045	36
0	5637	0.004625	37
0	5789	0.00475	38
0	5945	0.004875	39
0	6097	0.005	40
0	6253	0.005125	41
0	6405	0.00525	42
0	6561	0.005375	43
0	6713	0.0055	44
0	6869	0.005625	45
0	7021	0.00575	46
0	7177	0.005875	47
0	7329	0.006	48
0	7485	0.006125	49
0	7637	0.00625	50
0	7793	0.006375	51
0	7945	0.0065	52
0	8101	0.006625	53
0	8253	0.00675	54
0	8409	0.006875	55
0	8561	0.007	56
0	8717	0.007125	57
0	8869	0.00725	58
0	9025	0.007375	59
0	9177	0.0075	60
0	9333	0.007625	61
0	9485	0.00775	62
0	9641	0.007875	63
0	9793	0.008	64
0	9949	0.008125	65
0	10101	0.00825	66
0	10257	0.008375	67
0	10409	0.0085	68
0	10565	0.008625	69
0	10717	0.00875	70
0	10873	0.008875	71
0	11025	0.009	72
0	11181	0.009125	73
0	11333	0.00925	74
0	11489	0.009375	75
0	11641	0.0095	76
0	11797	0.009625	77
0	11949	0.00975	78
0	12105	0.009875	79
0	12257	0.01	80
0	12413	0.010125	81
0	12565	0.01025	82
0	12721	0.010375	83
0	12873	0.0105	84
0	13029	0.010625	85
0	13181	0.01075	86
0	13337	0.010875	87
0	13489	0.011	88
0	13645	0.011125	89
0	13797	0.01125	90
0	13953	0.011375	91
0	14105	0.0115	92
0	14261	0.011625	93
0	14413	0.01175	94
0	14569	0.011875	95
0	14721	0.012	96
0	14877	0.012125	97
0	15029	0.01225	98
0	15185	0.012375	99
0	15337	0.0125	100
0	15493	0.012625	101
0	15645	0.01275	102
0	15801	0.012875	103
0	15953	0.013	104
0	16109	0.013125	105
0	16261	0.01325	106
0	16417	0.013375	107
0	16569	0.0135	108
0	16725	0.013625	109
0	16877	0.01375	110
0	17033	0.013875	111
0	17185	0.014	112
0	17341	0.014125	113
0	17493	0.01425	114
0	17649	0.014375	115
0	17801	0.0145	116
0	17957	0.014625	117
0	18109	0.01475	118
0	18265	0.014875	119
0	18417	0.015	120
0	18573	0.015125	121
0	18725	0.01525	122
0	18881	0.015375	123
0	19033	0.0155	124
0	19189	0.015625	125
0	19341	0.01575	126
0	19497	0.015875	127
0	19649	0.016	128
0	19805	0.016125	129
0	19957	0.01625	130
0	20113	0.016375	131
0	20265	0.0165	132
0	20421	0.016625	133
0	20573	0.01675	134
0	20729	0.016875	135
0	20881	0.017	136
0	21037	0.017125	137
0	21189	0.01725	138
0	21345	0.017375	139
0	21497	0.0175	140
0	21653	0.017625	141
0	21805	0.01775	142
0	21961	0.017875	143
0	22113	0.018	144
0	22269	0.018125	145
0	22421	0.01825	146
0	22577	0.018375	147
0	22729	0.0185	148
0	22885	0.018625	149
0	23037	0.01875	150
0	23193	0.018875	151
0	23345	0.019	152
0	23501	0.019125	153
0	23653	0.01925	154
0	23809	0.019375	155
0	23961	0.0195	156
0	24117	0.019625	157
0	24269	0.01975	158
0	24425	0.019875	159
0	24577	0.02	160
0	24733	0.020125	161
0	24885	0.02025	162
0	25041	0.020375	163
0	25193	0.0205	164
0	25349	0.020625	165
0	25501	0.02075	166
0	25657	0.020875	167
0	25809	0.021	168
0	25965	0.021125	169
0	26117	0.02125	170
0	26273	0.021375	171
0	26425	0.0215	172
0	26581	0.021625	173
0	26733	0.02175	174
0	26889	0.021875	175
0	27041	0.022	176
0	27197	0.022125	177
0	27349	0.02225	178
0	27505	0.022375	179
0	27657	0.0225	180
0	27813	0.022625	181
0	27965	0.02275	182
0	28121	0.022875	183
0	28273	0.023	184
0	28429	0.023125	185
0	28581	0.02325	186
0	28737	0.023375	187
0	28889	0.0235	188
0	29045	0.023625	189
0	29197	0.02375	190
0	29353	0.023875	191
0	29505	0.024	192
0	29661	0.024125	193
0	29813	0.02425	194
0	29969	0.024375	195
0	30121	0.0245	196
0	30277	0.024625	197
0	30429	0.02475	198
0	30585	0.024875	199
0	30737	0.025	200
0	30893	0.025125	201
0	31045	0.02525	202
0	31201	0.025375	203
0	31353	0.0255	204
0	31509	0.025625	205
0	31661	0.02575	206
0	31817	0.025875	207
0	31969	0.026	208
0	32125	0.026125	209
0	32277	0.02625	210
0	32433	0.026375	211
0	32585	0.0265	212
0	32741	0.026625	213
0	32893	0.02675	214
0	33049	0.026875	215
0	33201	0.027	216
0	33357	0.027125	217
0	33509	0.02725	218
0	33665	0.027375	219
0	33817	0.0275	220
0	33973	0.027625	221
0	34125	0.02775	222
0	34281	0.027875	223
0	34433	0.028	224
0	34589	0.028125	225
0	34741	0.02825	226
0	34897	0.028375	227
0	35049	0.0285	228
0	35205	0.028625	229
0	35357	0.02875	230
0	35513	0.028875	231
0	35665	0.029	232
0	35821	0.029125	233
0	35973	0.02925	234
0	36129	0.029375	235
0	36281	0.0295	236
0	36437	0.029625	237
0	36589	0.02975	238
0	36745	0.029875	239
0	36897	0.03	240
0	37053	0.030125	241
0	37205	0.03025	242
0	37361	0.030375	243
0	37513	0.0305	244
0	37669	0.030625	245
0	37821	0.03075	246
0	37977	0.030875	247
0	38129	0.031	248
0	38285	0.031125	249
0	38437	0.03125	250
0	38593	0.031375	251
0	38745	0.0315	252
0	38901	0.031625	253
0	39053	0.03175	254
0	39209	0.031875	255
0	39361	0.032	256
0	39517	0.032125	257
0	39669	0.03225	258
0	39825	0.032375	259
0	39977	0.0325	260
0	40133	0.032625	261
0	40285	0.03275	262
0	40441	0.032875	263
0	40593	0.033	264
0	40749	0.033125	265
0	40901	0.03325	266
0	41057	0.033375	267
0	41209	0.0335	268
0	41365	0.033625	269
0	41517	0.03375	270
0	41673	0.033875	271
0	41825	0.034	272
0	41981	0.034125	273
0	42133	0.03425	274
0	42289	0.034375	275
0	42441	0.0345	276
0	42597	0.034625	277
0	42749	0.03475	278
0	42905	0.034875	279
0	43057	0.035	280
0	43213	0.035125	281
0	43365	0.03525	282
0	43521	0.035375	283
0	43673	0.0355	284
0	43829	0.035625	285
0	43981	0.03575	286
0	44137	0.035875	287
0	44289	0.036	288
0	44445	0.036125	289
0	44597	0.03625	290
0	44753	0.036375	291
0	44905	0.0365	292
0	45061	0.036625	293
0	45213	0.03675	294
0	45369	0.036875	295
0	45521	0.037	296
0	45677	0.037125	297
0	45829	0.03725	298
0	45985	0.037375	299
0	46137	0.0375	300
0	46293	0.037625	301
0	46445	0.03775	302
0	46601	0.037875	303
0	46753	0.038	304
0	46909	0.038125	305
0	47061	0.03825	306
0	47217	0.038375	307
0	47369	0.0385	308
0	47525	0.038625	309
0	47677	0.03875	310
0	47833	0.038875	311
0	47985	0.039	312
0	48141	0.039125	313
0	48293	0.03925	314
0	48449	0.039375	315
0	48601	0.0395	316
0	48757	0.039625	317
0	48909	0.03975	318
0	49065	0.039875	319
0	49217	0.04	320
0	49373	0.040125	321
0	49525	0.04025	322
0	49681	0.040375	323
0	49833	0.0405	324
0	49989	0.040625	325
0	50141	0.04075	326
0	50297	0.040875	327
0	50449	0.041	328
0	50605	0.041125	329
0	50757	0.04125	330
0	50913	0.041375	331
0	51065	0.0415	332
0	51221	0.041625	333
0	51373	0.04175	334
0	51529	0.041875	335
0	51681	0.042	336
0	51837	0.042125	337
0	51989	0.04225	338
0	52145	0.042375	339
0	52297	0.0425	340
0	52453	0.042625	341
0	52605	0.04275	342
0	52761	0.042875	343
0	52913	0.043	344
0	53069	0.043125	345
0	53221	0.04325	346
0	53377	0.043375	347
0	53529	0.0435	348
0	53685	0.043625	349
0	53837	0.04375	350
0	53993	0.043875	351
0	54145	0.044	352
0	54301	0.044125	353
0	54453	0.04425	354
0	54609	0.044375	355
0	54761	0.0445	356
0	54917	0.044625	357
0	55069	0.04475	358
0	55225	0.044875	359
0	55377	0.045	360
0	55533	0.045125	361
0	55685	0.04525	362
0	55841	0.045375	363
0	55993	0.0455	364
0	56149	0.045625	365
0	56301	0.04575	366
0	56457	0.045875	367
0	56609	0.046	368
0	56765	0.046125	369
0	56917	0.04625	370
0	57073	0.046375	371
0	57225	0.0465	372
0	57381	0.046625	373
0	57533	0.04675	374
0	57689	0.046875	375
0	57841	0.047	376
0	57997	0.047125	377
0	58149	0.04725	378
0	58305	0.047375	379
0	58457	0.0475	380
0	58613	0.047625	381
0	58765	0.04775	382
0	58921	0.047875	383
0	59073	0.048	384
0	59229	0.048125	385
0	59381	0.04825	386
0	59537	0.048375	387
0	59689	0.0485	388
0	59845	0.048625	389
0	59997	0.04875	390
0	60153	0.048875	391
0	60305	0.049	392
0	60461	0.049125	393
0	60613	0.04925	394
0	60769	0.049375	395
0	60921	0.0495	396
0	61077	0.049625	397
0	61229	0.04975	398
0	61385	0.049875	399
0	61537	0.05	400
0	61693	0.050125	401
0	61845	0.05025	402
0	62001	0.050375	403
0	62153	0.0505	404
0	62309	0.050625	405
0	62461	0.05075	406
0	62617	0.050875	407
0	62769	0.051	408
0	62925	0.051125	409
0	63077	0.05125	410
0	63233	0.051375	411
0	63385	0.0515	412
0	63541	0.051625	413
0	63693	0.05175	414
0	63849	0.051875	415
0	64001	0.052	416
0	64157	0.052125	417
0	64309	0.05225	418
0	64465	0.052375	419
0	64617	0.0525	420
0	64773	0.052625	421
0	64925	0.05275	422
0	65081	0.052875	423
0	65233	0.053	424
0	65389	0.053125	425
0	65541	0.05325	426
0	65697	0.053375	427
0	65849	0.0535	428
0	66005	0.053625	429
0	66157	0.05375	430
0	66313	0.053875	431
0	66465	0.054	432
0	66621	0.054125	433
0	66773	0.05425	434
0	66929	0.054375	435
0	67081	0.0545	436
0	67237	0.054625	437
0	67389	0.05475	438
0	67545	0.054875	439
0	67697	0.055	440
0	67853	0.055125	441
0	68005	0.05525	442
0	68161	0.055375	443
0	68313	0.0555	444
0	68469	0.055625	445
0	68621	0.05575	446
0	68777	0.055875	447
0	68929	0.056	448
0	69085	0.056125	449
0	69237	0.05625	450
0	69393	0.056375	451
0	69545	0.0565	452
0	69701	0.056625	453
0	69853	0.05675	454
0	70009	0.056875	455
0	70161	0.057	456
0	70317	0.057125	457
0	70469	0.05725	458
0	70625	0.057375	459
0	70777	0.0575	460
0	70933	0.057625	461
0	71085	0.05775	462
0	71241	0.057875	463
0	71393	0.058	464
0	71549	0.058125	465
0	71701	0.05825	466
0	71857	0.058375	467
0	72009	0.0585	468
0	72165	0.058625	469
0	72317	0.05875	470
0	72473	0.058875	471
0	72625	0.059	472
0	72781	0.059125	473
0	72933	0.05925	474
0	73089	0.059375	475
0	73241	0.0595	476
0	73397	0.059625	477
0	73549	0.05975	478
0	73705	0.059875	479
0	73857	0.06	480
0	74013	0.060125	481
0	74165	0.06025	482
0	74321	0.060375	483
0	74473	0.0605	484
0	74629	0.060625	485
0	74781	0.06075	486
0	74937	0.060875	487
0	75089	0.061	488
0	75245	0.061125	489
0	75397	0.06125	490
0	75553	0.061375	491
0	75705	0.0615	492
0	75861	0.061625	493
0	76013	0.06175	494
0	76169	0.061875	495
0	76321	0.062	496
0	76477	0.062125	497
0	76629	0.06225	498
0	76785	0.062375	499
0	76937	0.0625	500
0	77093	0.062625	501
0	77245	0.06275	502
0	77401	0.062875	503
0	77553	0.063	504
0	77709	0.063125	505
0	77861	0.06325	506
0	78017	0.063375	507
0	78169	0.0635	508
0	78325	0.063625	509
0	78477	0.06375	510
0	78633	0.063875	511
0	78785	0.064	512
0	78941	0.064125	513
0	79093	0.06425	514
0	79249	0.064375	515
0	79401	0.0645	516
0	79557	0.064625	517
0	79709	0.06475	518
0	79865	0.064875	519
0	80017	0.065	520
0	80173	0.065125	521
0	80325	0.06525	522
0	80481	0.065375	523
0	80633	0.0655	524
0	80789	0.065625	525
0	80941	0.06575	526
0	81097	0.065875	527
0	81249	0.066	528
0	81405	0.066125	529
0	81557	0.06625	530
0	81713	0.066375	531
0	81865	0.0665	532
0	82021	0.066625	533
0	82173	0.06675	534
0	82329	0.066875	535
0	82481	0.067	536
0	82637	0.067125	537
0	82789	0.06725	538
0	82945	0.067375	539
0	83097	0.0675	540
0	83253	0.067625	541
0	83405	0.06775	542
0	83561	0.067875	543
0	83713	0.068	544
0	83869	0.068125	545
0	84021	0.06825	546
0	84177	0.068375	547
0	84329	0.0685	548
0	84485	0.068625	549
0	84637	0.06875	550
0	84793	0.068875	551
0	84945	0.069	552
0	85101	0.069125	553
0	85253	0.06925	554
0	85409	0.069375	555
0	85561	0.0695	556
0	85717	0.069625	557
0	85869	0.06975	558
0	86025	0.069875	559
0	86177	0.07	560
0	86333	0.070125	561
0	86485	0.07025	562
0	86641	0.070375	563
0	86793	0.0705	564
0	86949	0.070625	565
0	87101	0.07075	566
0	87257	0.070875	567
0	87409	0.071	568
0	87565	0.071125	569
0	87717	0.07125	570
0	87873	0.071375	571
0	88025	0.0715	572
0	88181	0.071625	573
0	88333	0.07175	574
0	88489	0.071875	575
0	88641	0.072	576
0	88797	0.072125	577
0	88949	0.07225	578
0	89105	0.072375	579
0	89257	0.0725	580
0	89413	0.072625	581
0	89565	0.07275	582
0	89721	0.072875	583
0	89873	0.073	584
0	90029	0.073125	585
0	90181	0.07325	586
0	90337	0.073375	587
0	90489	0.0735	588
0	90645	0.073625	589
0	90797	0.07375	590
0	90953	0.073875	591
0	91105	0.074	592
0	91261	0.074125	593
0	91413	0.07425	594
0	91569	0.074375	595
0	91721	0.0745	596
0	91877	0.074625	597
0	92029	0.07475	598
0	92185	0.074875	599
0	92337	0.075	600
0	92493	0.075125	601
0	92645	0.07525	602
0	92801	0.075375	603
0	92953	0.0755	604
0	93109	0.075625	605
0	93261	0.07575	606
0	93417	0.075875	607
0	93569	0.076	608
0	93725	0.076125	609
0	93877	0.07625	610
0	94033	0.076375	611
0	94185	0.0765	612
0	94341	0.076625	613
0	94493	0.07675	614
0	94649	0.076875	615
0	94801	0.077	616
0	94957	0.077125	617
0	95109	0.07725	618
0	95265	0.077375	619
0	95417	0.0775	620
0	95573	0.077625	621
0	95725	0.07775	622
0	95881	0.077875	623
0	96033	0.078	624
0	96189	0.078125	625
0	96341	0.07825	626
0	96497	0.078375	627
0	96649	0.0785	628
0	96805	0.078625	629
0	96957	0.07875	630
0	97113	0.078875	631
0	97265	0.079	632
0	97421	0.079125	633
0	97573	0.07925	634
0	97729	0.079375	635
0	97881	0.0795	636
0	98037	0.079625	637
0	98189	0.07975	638
0	98345	0.079875	639
0	98497	0.08	640
0	98653	0.080125	641
0	98805	0.08025	642
0	98961	0.080375	643
0	99113	0.0805	644
0	99269	0.080625	645
0	99421	0.08075	646
0	99577	0.080875	647
0	99729	0.081	648
0	99885	0.081125	649
0	100037	0.08125	650
0	100193	0.081375	651
0	100345	0.0815	652
0	100501	0.081625	653
0	100653	0.08175	654
0	100809	0.081875	655
0	100961	0.082	656
0	101117	0.082125	657
0	101269	0.08225	658
0	101425	0.082375	659
0	101577	0.0825	660
0	101733	0.082625	661
0	101885	0.08275	662
0	102041	0.082875	663
0	102193	0.083	664
0	102349	0.083125	665
0	102501	0.08325	666
0	102657	0.083375	667
0	102809	0.0835	668
0	102965	0.083625	669
0	103117	0.08375	670
0	103273	0.083875	671
0	103425	0.084	672
0	103581	0.084125	673
0	103733	0.08425	674
0	103889	0.084375	675
0	104041	0.0845	676
0	104197	0.084625	677
0	104349	0.08475	678
0	104505	0.084875	679
0	104657	0.085	680
0	104813	0.085125	681
0	104965	0.08525	682
0	105121	0.085375	683
0	105273	0.0855	684
0	105429	0.085625	685
0	105581	0.08575	686
0	105737	0.085875	687
0	105889	0.086	688
0	106045	0.086125	689
0	106197	0.08625	690
0	106353	0.086375	691
0	106505	0.0865	692
0	106661	0.086625	693
0	106813	0.08675	694
0	106969	0.086875	695
0	107121	0.087	696
0	107277	0.087125	697
0	107429	0.08725	698
0	107585	0.087375	699
0	107737	0.0875	700
0	107893	0.087625	701
0	108045	0.08775	702
0	108201	0.087875	703
0	108353	0.088	704
0	108509	0.088125	705
0	108661	0.08825	706
0	108817	0.088375	707
0	108969	0.0885	708
0	109125	0.088625	709
0	109277	0.08875	710
0	109433	0.088875	711
0	109585	0.089	712
0	109741	0.089125	713
0	109893	0.08925	714
0	110049	0.089375	715
0	110201	0.0895	716
0	110357	0.089625	717
0	110509	0.08975	718
0	110665	0.089875	719
0	110817	0.09	720
0	110973	0.090125	721
0	111125	0.09025	722
0	111281	0.090375	723
0	111433	0.0905	724
0	111589	0.090625	725
0	111741	0.09075	726
0	111897	0.090875	727
0	112049	0.091	728
0	112205	0.091125	729
0	112357	0.09125	730
0	112513	0.091375	731
0	112665	0.0915	732
0	112821	0.091625	733
0	112973	0.09175	734
0	113129	0.091875	735
0	113281	0.092	736
0	113437	0.092125	737
0	113589	0.09225	738
0	113745	0.092375	739
0	113897	0.0925	740
0	114053	0.092625	741
0	114205	0.09275	742
0	114361	0.092875	743
0	114513	0.093	744
0	114669	0.093125	745
0	114821	0.09325	746
0	114977	0.093375	747
0	115129	0.0935	748
0	115285	0.093625	749
0	115437	0.09375	750
0	115593	0.093875	751
0	115745	0.094	752
0	115901	0.094125	753
0	116053	0.09425	754
0	116209	0.094375	755
0	116361	0.0945	756
0	116517	0.094625	757
0	116669	0.09475	758
0	116825	0.094875	759
0	116977	0.095	760
0	117133	0.095125	761
0	117285	0.09525	762
0	117441	0.095375	763
0	117593	0.0955	764
0	117749	0.095625	765
0	117901	0.09575	766
0	118057	0.095875	767
0	118209	0.096	768
0	118365	0.096125	769
0	118517	0.09625	770
0	118673	0.096375	771
0	118825	0.0965	772
0	118981	0.096625	773
0	119133	0.09675	774
0	119289	0.096875	775
0	119441	0.097	776
0	119597	0.097125	777
0	119749	0.09725	778
0	119905	0.097375	779
0	120057	0.0975	780
0	120213	0.097625	781
0	120365	0.09775	782
0	120521	0.097875	783
0	120673	0.098	784
0	120829	0.098125	785
0	120981	0.09825	786
0	121137	0.098375	787
0	121289	0.0985	788
0	121445	0.098625	789
0	121597	0.09875	790
0	121753	0.098875	791
0	121905	0.099	792
0	122061	0.099125	793
0	122213	0.09925	794
0	122369	0.099375	795
0	122521	0.0995	796
0	122677	0.099625	797
0	122829	0.09975	798
0	122985	0.099875	799
0	123137	0.1	800
0	123293	0.100125	801
0	123445	0.10025	802
0	123601	0.100375	803
0	123753	0.1005	804
0	123909	0.100625	805
0	124061	0.10075	806
0	124217	0.100875	807
0	124369	0.101	808
0	124525	0.101125	809
0	124677	0.10125	810
0	124833	0.101375	811
0	124985	0.1015	812
0	125141	0.101625	813
0	125293	0.10175	814
0	125449	0.101875	815
0	125601	0.102	816
0	125757	0.102125	817
0	125909	0.10225	818
0	126065	0.102375	819
0	126217	0.1025	820
0	126373	0.102625	821
0	126525	0.10275	822
0	126681	0.102875	823
0	126833	0.103	824
0	126989	0.103125	825
0	127141	0.10325	826
0	127297	0.103375	827
0	127449	0.1035	828
0	127605	0.103625	829
0	127757	0.10375	830
0	127913	0.103875	831
0	128065	0.104	832
0	128221	0.104125	833
0	128373	0.10425	834
0	128529	0.104375	835
0	128681	0.1045	836
0	128837	0.104625	837
0	128989	0.10475	838
0	129145	0.104875	839
0	129297	0.105	840
0	129453	0.105125	841
0	129605	0.10525	842
0	129761	0.105375	843
0	129913	0.1055	844
0	130069	0.105625	845
0	130221	0.10575	846
0	130377	0.105875	847
0	130529	0.106	848
0	130685	0.106125	849
0	130837	0.10625	850
0	130993	0.106375	851
0	131145	0.1065	852
0	131301	0.106625	853
0	131453	0.10675	854
0	131609	0.106875	855
0	131761	0.107	856
0	131917	0.107125	857
0	132069	0.10725	858
0	132225	0.107375	859
0	132377	0.1075	860
0	132533	0.107625	861
0	132685	0.10775	862
0	132841	0.107875	863
0	132993	0.108	864
0	133149	0.108125	865
0	133301	0.10825	866
0	133457	0.108375	867
0	133609	0.1085	868
0	133765	0.108625	869
0	133917	0.10875	870
0	134073	0.108875	871
0	134225	0.109	872
0	134381	0.109125	873
0	134533	0.10925	874
0	134689	0.109375	875
0	134841	0.1095	876
0	134997	0.109625	877
0	135149	0.10975	878
0	135305	0.109875	879
0	135457	0.11	880
0	135613	0.110125	881
0	135765	0.11025	882
0	135921	0.110375	883
0	136073	0.1105	884
0	136229	0.110625	885
0	136381	0.11075	886
0	136537	0.110875	887
0	136689	0.111	888
0	136845	0.111125	889
0	136997	0.11125	890
0	137153	0.111375	891
0	137305	0.1115	892
0	137461	0.111625	893
0	137613	0.11175	894
0	137769	0.111875	895
0	137921	0.112	896
0	138077	0.112125	897
0	138229	0.11225	898
0	138385	0.112375	899
0	138537	0.1125	900
0	138693	0.112625	901
0	138845	0.11275	902
0	139001	0.112875	903
0	139153	0.113	904
0	139309	0.113125	905
0	139461	0.11325	906
0	139617	0.113375	907
0	139769	0.1135	908
0	139925	0.113625	909
0	140077	0.11375	910
0	140233	0.113875	911
0	140385	0.114	912
0	140541	0.114125	913
0	140693	0.11425	914
0	140849	0.114375	915
0	141001	0.1145	916
0	141157	0.114625	917
0	141309	0.11475	918
0	141465	0.114875	919
0	141617	0.115	920
0	141773	0.115125	921
0	141925	0.11525	922
0	142081	0.115375	923
0	142233	0.1155	924
0	142389	0.115625	925
0	142541	0.11575	926
0	142697	0.115875	927
0	142849	0.116	928
0	143005	0.116125	929
0	143157	0.11625	930
0	143313	0.116375	931
0	143465	0.1165	932
0	143621	0.116625	933
0	143773	0.11675	934
0	143929	0.116875	935
0	144081	0.117	936
0	144237	0.117125	937
0	144389	0.11725	938
0	144545	0.117375	939
0	144697	0.1175	940
0	144853	0.117625	941
0	145005	0.11775	942
0	145161	0.117875	943
0	145313	0.118	944
0	145469	0.118125	945
0	145621	0.11825	946
0	145777	0.118375	947
0	145929	0.1185	948
0	146085	0.118625	949
0	146237	0.11875	950
0	146393	0.118875	951
0	146545	0.119	952
0	146701	0.119125	953
0	146853	0.11925	954
0	147009	0.119375	955
0	147161	0.1195	956
0	147317	0.119625	957
0	147469	0.11975	958
0	147625	0.119875	959
0	147777	0.12	960
0	147933	0.120125	961
0	148085	0.12025	962
0	148241	0.120375	963
0	148393	0.1205	964
0	148549	0.120625	965
0	148701	0.12075	966
0	148857	0.120875	967
0	149009	0.121	968
0	149165	0.121125	969
0	149317	0.12125	970
0	149473	0.121375	971
0	149625	0.1215	972
0	149781	0.121625	973
0	149933	0.12175	974
0	150089	0.121875	975
0	150241	0.122	976
0	150397	0.122125	977
0	150549	0.12225	978
0	150705	0.122375	979
0	150857	0.1225	980
0	151013	0.122625	981
0	151165	0.12275	982
0	151321	0.122875	983
0	151473	0.123	984
0	151629	0.123125	985
0	151781	0.12325	986
0	151937	0.123375	987
0	152089	0.1235	988
0	152245	0.123625	989
0	152397	0.12375	990
0	152553	0.123875	991
0	152705	0.124	992
0	152861	0.124125	993
0	153013	0.12425	994
0	153169	0.124375	995
0	153321	0.1245	996
0	153477	0.124625	997
0	153629	0.12475	998
0	153785	0.124875	999
0	153937	0.125	1000
0	154093	0.125125	1001
0	154245	0.12525	1002
0	154401	0.125375	1003
0	154553	0.1255	1004
0	154709	0.125625	1005
0	154861	0.12575	1006
0	155017	0.125875	1007
0	155169	0.126	1008
0	155325	0.126125	1009
0	155477	0.12625	1010
0	155633	0.126375	1011
0	155785	0.1265	1012
0	155941	0.126625	1013
0	156093	0.12675	1014
0	156249	0.126875	1015
0	156401	0.127	1016
0	156557	0.127125	1017
0	156709	0.12725	1018
0	156865	0.127375	1019
0	157017	0.1275	1020
0	157173	0.127625	1021
0	157325	0.12775	1022
0	157481	0.127875	1023
0	157633	0.128	1024
0	157789	0.128125	1025
0	157941	0.12825	1026
0	158097	0.128375	1027
0	158249	0.1285	1028
0	158405	0.128625	1029
0	158557	0.12875	1030
0	158713	0.128875	1031
0	158865	0.129	1032
0	159021	0.129125	1033
0	159173	0.12925	1034
0	159329	0.129375	1035
0	159481	0.1295	1036
0	159637	0.129625	1037
0	159789	0.12975	1038
0	159945	0.129875	1039
0	160097	0.13	1040
0	160253	0.130125	1041
0	160405	0.13025	1042
0	160561	0.130375	1043
0	160713	0.1305	1044
0	160869	0.130625	1045
0	161021	0.13075	1046
0	161177	0.130875	1047
0	161329	0.131	1048
0	161485	0.131125	1049
0	161637	0.13125	1050
0	161793	0.131375	1051
0	161945	0.1315	1052
0	162101	0.131625	1053
0	162253	0.13175	1054
0	162409	0.131875	1055
0	162561	0.132	1056
0	162717	0.132125	1057
0	162869	0.13225	1058
0	163025	0.132375	1059
0	163177	0.1325	1060
0	163333	0.132625	1061
0	163485	0.13275	1062
0	163641	0.132875	1063
0	163793	0.133	1064
0	163949	0.133125	1065
0	164101	0.13325	1066
0	164257	0.133375	1067
0	164409	0.1335	1068
0	164565	0.133625	1069
0	164717	0.13375	1070
0	164873	0.133875	1071
0	165025	0.134	1072
0	165181	0.134125	1073
0	165333	0.13425	1074
0	165489	0.134375	1075
0	165641	0.1345	1076
0	165797	0.134625	1077
0	165949	0.13475	1078
0	166105	0.134875	1079
0	166257	0.135	1080
0	166413	0.135125	1081
0	166565	0.13525	1082
0	166721	0.135375	1083
0	166873	0.1355	1084
0	167029	0.135625	1085
0	167181	0.13575	1086
0	167337	0.135875	1087
0	167489	0.136	1088
0	167645	0.136125	1089
0	167797	0.13625	1090
0	167953	0.136375	1091
0	168105	0.1365	1092
0	168261	0.136625	1093
0	168413	0.13675	1094
0	168569	0.136875	1095
0	168721	0.137	1096
0	168877	0.137125	1097
0	169029	0.13725	1098
0	169185	0.137375	1099
0	169337	0.1375	1100
0	169493	0.137625	1101
0	169645	0.13775	1102
0	169801	0.137875	1103
0	169953	0.138	1104
0	170109	0.138125	1105
0	170261	0.13825	1106
0	170417	0.138375	1107
0	170569	0.1385	1108
0	170725	0.138625	1109
0	170877	0.13875	1110
0	171033	0.138875	1111
0	171185	0.139	1112
0	171341	0.139125	1113
0	171493	0.13925	1114
0	171649	0.139375	1115
0	171801	0.1395	1116
0	171957	0.139625	1117
0	172109	0.13975	1118
0	172265	0.139875	1119
0	172417	0.14	1120
0	172573	0.140125	1121
0	172725	0.14025	1122
0	172881	0.140375	1123
0	173033	0.1405	1124
0	173189	0.140625	1125
0	173341	0.14075	1126
0	173497	0.140875	1127
0	173649	0.141	1128
0	173805	0.141125	1129
0	173957	0.14125	1130
0	174113	0.141375	1131
0	174265	0.1415	1132
0	174421	0.141625	1133
0	174573	0.14175	1134
0	174729	0.141875	1135
0	174881	0.142	1136
0	175037	0.142125	1137
0	175189	0.14225	1138
0	175345	0.142375	1139
0	175497	0.1425	1140
0	175653	0.142625	1141
0	175805	0.14275	1142
0	175961	0.142875	1143
0	176113	0.143	1144
0	176269	0.143125	1145
0	176421	0.14325	1146
0	176577	0.143375	1147
0	176729	0.1435	1148
0	176885	0.143625	1149
0	177037	0.14375	1150
0	177193	0.143875	1151
0	177345	0.144	1152
0	177501	0.144125	1153
0	177653	0.14425	1154
0	177809	0.144375	1155
0	177961	0.1445	1156
0	178117	0.144625	1157
0	178269	0.14475	1158
0	178425	0.144875	1159
0	178577	0.145	1160
0	178733	0.145125	1161
0	178885	0.14525	1162
0	179041	0.145375	1163
0	179193	0.1455	1164
0	179349	0.145625	1165
0	179501	0.14575	1166
0	179657	0.145875	1167
0	179809	0.146	1168
0	179965	0.146125	1169
0	180117	0.14625	1170
0	180273	0.146375	1171
0	180425	0.1465	1172
0	180581	0.146625	1173
0	180733	0.14675	1174
0	180889	0.146875	1175
0	181041	0.147	1176
0	181197	0.147125	1177
0	181349	0.14725	1178
0	181505	0.147375	1179
0	181657	0.1475	1180
0	181813	0.147625	1181
0	181965	0.14775	1182
0	182121	0.147875	1183
0	182273	0.148	1184
0	182429	0.148125	1185
0	182581	0.14825	1186
0	182737	0.148375	1187
0	182889	0.1485	1188
0	183045	0.148625	1189
0	183197	0.14875	1190
0	183353	0.148875	1191
0	183505	0.149	1192
0	183661	0.149125	1193
0	183813	0.14925	1194
0	183969	0.149375	1195
0	184121	0.1495	1196
0	184277	0.149625	1197
0	184429	0.14975	1198
0	184585	0.149875	1199
0	184737	0.15	1200
0	184893	0.150125	1201
0	185045	0.15025	1202
0	185201	0.150375	1203
0	185353	0.1505	1204
0	185509	0.150625	1205
0	185661	0.15075	1206
0	185817	0.150875	1207
0	185969	0.151	1208
0	186125	0.151125	1209
0	186277	0.15125	1210
0	186433	0.151375	1211
0	186585	0.1515	1212
0	186741	0.151625	1213
0	186893	0.15175	1214
0	187049	0.151875	1215
0	187201	0.152	1216
0	187357	0.152125	1217
0	187509	0.15225	1218
0	187665	0.152375	1219
0	187817	0.1525	1220
0	187973	0.152625	1221
0	188125	0.15275	1222
0	188281	0.152875	1223
0	188433	0.153	1224
0	188589	0.153125	1225
0	188741	0.15325	1226
0	188897	0.153375	1227
0	189049	0.1535	1228
0	189205	0.153625	1229
0	189357	0.15375	1230
0	189513	0.153875	1231
0	189665	0.154	1232
0	189821	0.154125	1233
0	189973	0.15425	1234
0	190129	0.154375	1235
0	190281	0.1545	1236
0	190437	0.154625	1237
0	190589	0.15475	1238
0	190745	0.154875	1239
0	190897	0.155	1240
0	191053	0.155125	1241
0	191205	0.15525	1242
0	191361	0.155375	1243
0	191513	0.1555	1244
0	191669	0.155625	1245
0	191821	0.15575	1246
0	191977	0.155875	1247
0	192129	0.156	1248
0	192285	0.156125	1249
0	192437	0.15625	1250
0	192593	0.156375	1251
0	192745	0.1565	1252
0	192901	0.156625	1253
0	193053	0.15675	1254
0	193209	0.156875	1255
0	193361	0.157	1256
0	193517	0.157125	1257
0	193669	0.15725	1258
0	193825	0.157375	1259
0	193977	0.1575	1260
0	194133	0.157625	1261
0	194285	0.15775	1262
0	194441	0.157875	1263
0	194593	0.158	1264
0	194749	0.158125	1265
0	194901	0.15825	1266
0	195057	0.158375	1267
0	195209	0.1585	1268
0	195365	0.158625	1269
0	195517	0.15875	1270
0	195673	0.158875	1271
0	195825	0.159	1272
0	195981	0.159125	1273
0	196133	0.15925	1274
0	196289	0.159375	1275
0	196441	0.1595	1276
0	196597	0.159625	1277
0	196749	0.15975	1278
0	196905	0.159875	1279
0	197057	0.16	1280
0	197213	0.160125	1281
0	197365	0.16025	1282
0	197521	0.160375	1283
0	197673	0.1605	1284
0	197829	0.160625	1285
0	197981	0.16075	1286
0	198137	0.160875	1287
0	198289	0.161	1288
0	198445	0.161125	1289
0	198597	0.16125	1290
0	198753	0.161375	1291
0	198905	0.1615	1292
0	199061	0.161625	1293
0	199213	0.16175	1294
0	199369	0.161875	1295
0	199521	0.162	1296