version 3
run Protection-0-20250504-11:20:22-15456
attr configname Protection
attr datetime 20250504-11:20:22
attr datetimef 20250504-112022
attr experiment Protection
attr inifile omnetpp.ini
attr iterationvars ""
attr iterationvarsd ""
attr iterationvarsf ""
attr measurement ""
attr network p2pNetwork
attr processid 15456
attr repetition 0
attr replication #0
attr resultdir results
attr runnumber 0
attr seedset 0
config image-path ../../../../../images
config *.lteA.useProtection true
config *.lteB.useProtection true
config *.lteA.protectionSwitchTime 0.5s
config *.lteB.protectionSwitchTime 0.5s
config network p2pNetwork
config sim-time-limit 1s
config *.visualizer.*.enabled true
config *.visualizer.*.animationSpeed 20
config *.visualizer.*.displayRoutes false
config *.visualizer.*.displayPacketDrops true
config *.visualizer.*.displayLabels true
config **.scalar-recording true
config **.vector-recording true

vector 0 p2pNetwork.lteA stmWorkingSent:vector ETV
attr recordingmode vector
attr source stmWorkingSent
attr title "STM sent on working line"
vector 1 p2pNetwork.lteA stmProtectionSent:vector ETV
attr recordingmode vector
attr source stmProtectionSent
attr title "STM sent on protection line"
vector 2 p2pNetwork.lteA stmWorkingReceived:vector ETV
attr recordingmode vector
attr source stmWorkingReceived
attr title "STM received on working line"
vector 3 p2pNetwork.lteA stmProtectionReceived:vector ETV
attr recordingmode vector
attr source stmProtectionReceived
attr title "STM received on protection line"
vector 4 p2pNetwork.lteA loadSTM:vector ETV
attr recordingmode vector
attr title "load STM"
vector 5 p2pNetwork.lteA tramasSTM:vector ETV
attr recordingmode vector
attr title "\"tramas STM\""
vector 6 p2pNetwork.lteB stmWorkingSent:vector ETV
attr recordingmode vector
attr source stmWorkingSent
attr title "STM sent on working line"
vector 7 p2pNetwork.lteB stmProtectionSent:vector ETV
attr recordingmode vector
attr source stmProtectionSent
attr title "STM sent on protection line"
vector 8 p2pNetwork.lteB stmWorkingReceived:vector ETV
attr recordingmode vector
attr source stmWorkingReceived
attr title "STM received on working line"
vector 9 p2pNetwork.lteB stmProtectionReceived:vector ETV
attr recordingmode vector
attr source stmProtectionReceived
attr title "STM received on protection line"
vector 10 p2pNetwork.lteB loadSTM:vector ETV
attr recordingmode vector
attr title "load STM"
vector 11 p2pNetwork.lteB tramasSTM:vector ETV
attr recordingmode vector
attr title "\"tramas STM\""
0	49	0.000125	1
0	117	0.00025	2
0	189	0.000375	3
0	257	0.0005	4
0	329	0.000625	5
0	397	0.00075	6
0	469	0.000875	7
0	537	0.001	8
0	609	0.001125	9
0	677	0.00125	10
0	749	0.001375	11
0	817	0.0015	12
0	889	0.001625	13
0	957	0.00175	14
0	1029	0.001875	15
0	1097	0.002	16
0	1169	0.002125	17
0	1237	0.00225	18
0	1309	0.002375	19
0	1377	0.0025	20
0	1449	0.002625	21
0	1517	0.00275	22
0	1589	0.002875	23
0	1657	0.003	24
0	1729	0.003125	25
0	1797	0.00325	26
0	1869	0.003375	27
0	1937	0.0035	28
0	2009	0.003625	29
0	2077	0.00375	30
0	2149	0.003875	31
0	2217	0.004	32
0	2289	0.004125	33
0	2357	0.00425	34
0	2429	0.004375	35
0	2497	0.0045	36
0	2569	0.004625	37
0	2637	0.00475	38
0	2709	0.004875	39
0	2777	0.005	40
0	2849	0.005125	41
0	2917	0.00525	42
0	2989	0.005375	43
0	3057	0.0055	44
0	3129	0.005625	45
0	3197	0.00575	46
0	3269	0.005875	47
0	3337	0.006	48
0	3409	0.006125	49
0	3477	0.00625	50
0	3549	0.006375	51
0	3617	0.0065	52
0	3689	0.006625	53
0	3757	0.00675	54
0	3829	0.006875	55
0	3897	0.007	56
0	3969	0.007125	57
0	4037	0.00725	58
0	4109	0.007375	59
0	4177	0.0075	60
0	4249	0.007625	61
0	4317	0.00775	62
0	4389	0.007875	63
0	4457	0.008	64
0	4529	0.008125	65
0	4597	0.00825	66
0	4669	0.008375	67
0	4737	0.0085	68
0	4809	0.008625	69
0	4877	0.00875	70
0	4949	0.008875	71
0	5017	0.009	72
0	5089	0.009125	73
0	5157	0.00925	74
0	5229	0.009375	75
0	5297	0.0095	76
0	5369	0.009625	77
0	5437	0.00975	78
0	5509	0.009875	79
0	5577	0.01	80
0	5649	0.010125	81
0	5717	0.01025	82
0	5789	0.010375	83
0	5857	0.0105	84
0	5929	0.010625	85
0	5997	0.01075	86
0	6069	0.010875	87
0	6137	0.011	88
0	6209	0.011125	89
0	6277	0.01125	90
0	6349	0.011375	91
0	6417	0.0115	92
0	6489	0.011625	93
0	6557	0.01175	94
0	6629	0.011875	95
0	6697	0.012	96
0	6769	0.012125	97
0	6837	0.01225	98
0	6909	0.012375	99
0	6977	0.0125	100
0	7049	0.012625	101
0	7117	0.01275	102
0	7189	0.012875	103
0	7257	0.013	104
0	7329	0.013125	105
0	7397	0.01325	106
0	7469	0.013375	107
0	7537	0.0135	108
0	7609	0.013625	109
0	7677	0.01375	110
0	7749	0.013875	111
0	7817	0.014	112
0	7889	0.014125	113
0	7957	0.01425	114
0	8029	0.014375	115
0	8097	0.0145	116
0	8169	0.014625	117
0	8237	0.01475	118
0	8309	0.014875	119
0	8377	0.015	120
0	8449	0.015125	121
0	8517	0.01525	122
0	8589	0.015375	123
0	8657	0.0155	124
0	8729	0.015625	125
0	8797	0.01575	126
0	8869	0.015875	127
0	8937	0.016	128
0	9009	0.016125	129
0	9077	0.01625	130
0	9149	0.016375	131
0	9217	0.0165	132
0	9289	0.016625	133
0	9357	0.01675	134
0	9429	0.016875	135
0	9497	0.017	136
0	9569	0.017125	137
0	9637	0.01725	138
0	9709	0.017375	139
0	9777	0.0175	140
0	9849	0.017625	141
0	9917	0.01775	142
0	9989	0.017875	143
0	10057	0.018	144
0	10129	0.018125	145
0	10197	0.01825	146
0	10269	0.018375	147
0	10337	0.0185	148
0	10409	0.018625	149
0	10477	0.01875	150
0	10549	0.018875	151
0	10617	0.019	152
0	10689	0.019125	153
0	10757	0.01925	154
0	10829	0.019375	155
0	10897	0.0195	156
0	10969	0.019625	157
0	11037	0.01975	158
0	11109	0.019875	159
0	11177	0.02	160
0	11249	0.020125	161
0	11317	0.02025	162
0	11389	0.020375	163
0	11457	0.0205	164
0	11529	0.020625	165
0	11597	0.02075	166
0	11669	0.020875	167
0	11737	0.021	168
0	11809	0.021125	169
0	11877	0.02125	170
0	11949	0.021375	171
0	12017	0.0215	172
0	12089	0.021625	173
0	12157	0.02175	174
0	12229	0.021875	175
0	12297	0.022	176
0	12369	0.022125	177
0	12437	0.02225	178
0	12509	0.022375	179
0	12577	0.0225	180
0	12649	0.022625	181
0	12717	0.02275	182
0	12789	0.022875	183
0	12857	0.023	184
0	12929	0.023125	185
0	12997	0.02325	186
0	13069	0.023375	187
0	13137	0.0235	188
0	13209	0.023625	189
0	13277	0.02375	190
0	13349	0.023875	191
0	13417	0.024	192
0	13489	0.024125	193
0	13557	0.02425	194
0	13629	0.024375	195
0	13697	0.0245	196
0	13769	0.024625	197
0	13837	0.02475	198
0	13909	0.024875	199
0	13977	0.025	200
0	14049	0.025125	201
0	14117	0.02525	202
0	14189	0.025375	203
0	14257	0.0255	204
0	14329	0.025625	205
0	14397	0.02575	206
0	14469	0.025875	207
0	14537	0.026	208
0	14609	0.026125	209
0	14677	0.02625	210
0	14749	0.026375	211
0	14817	0.0265	212
0	14889	0.026625	213
0	14957	0.02675	214
0	15029	0.026875	215
0	15097	0.027	216
0	15169	0.027125	217
0	15237	0.02725	218
0	15309	0.027375	219
0	15377	0.0275	220
0	15449	0.027625	221
0	15517	0.02775	222
0	15589	0.027875	223
0	15657	0.028	224
0	15729	0.028125	225
0	15797	0.02825	226
0	15869	0.028375	227
0	15937	0.0285	228
0	16009	0.028625	229
0	16077	0.02875	230
0	16149	0.028875	231
0	16217	0.029	232
0	16289	0.029125	233
0	16357	0.02925	234
0	16429	0.029375	235
0	16497	0.0295	236
0	16569	0.029625	237
0	16637	0.02975	238
0	16709	0.029875	239
0	16777	0.03	240
0	16849	0.030125	241
0	16917	0.03025	242
0	16989	0.030375	243
0	17057	0.0305	244
0	17129	0.030625	245
0	17197	0.03075	246
0	17269	0.030875	247
0	17337	0.031	248
0	17409	0.031125	249
0	17477	0.03125	250
0	17549	0.031375	251
0	17617	0.0315	252
0	17689	0.031625	253
0	17757	0.03175	254
0	17829	0.031875	255
0	17897	0.032	256
0	17969	0.032125	257
0	18037	0.03225	258
0	18109	0.032375	259
0	18177	0.0325	260
0	18249	0.032625	261
0	18317	0.03275	262
0	18389	0.032875	263
0	18457	0.033	264
0	18529	0.033125	265
0	18597	0.03325	266
0	18669	0.033375	267
0	18737	0.0335	268
0	18809	0.033625	269
0	18877	0.03375	270
0	18949	0.033875	271
0	19017	0.034	272
0	19089	0.034125	273
0	19157	0.03425	274
0	19229	0.034375	275
0	19297	0.0345	276
0	19369	0.034625	277
0	19437	0.03475	278
0	19509	0.034875	279
0	19577	0.035	280
0	19649	0.035125	281
0	19717	0.03525	282
0	19789	0.035375	283
0	19857	0.0355	284
0	19929	0.035625	285
0	19997	0.03575	286
0	20069	0.035875	287
0	20137	0.036	288
0	20209	0.036125	289
0	20277	0.03625	290
0	20349	0.036375	291
0	20417	0.0365	292
0	20489	0.036625	293
0	20557	0.03675	294
0	20629	0.036875	295
0	20697	0.037	296
0	20769	0.037125	297
0	20837	0.03725	298
0	20909	0.037375	299
0	20977	0.0375	300
0	21049	0.037625	301
0	21117	0.03775	302
0	21189	0.037875	303
0	21257	0.038	304
0	21329	0.038125	305
0	21397	0.03825	306
0	21469	0.038375	307
0	21537	0.0385	308
0	21609	0.038625	309
0	21677	0.03875	310
0	21749	0.038875	311
0	21817	0.039	312
0	21889	0.039125	313
0	21957	0.03925	314
0	22029	0.039375	315
0	22097	0.0395	316
0	22169	0.039625	317
0	22237	0.03975	318
0	22309	0.039875	319
0	22377	0.04	320
0	22449	0.040125	321
0	22517	0.04025	322
0	22589	0.040375	323
0	22657	0.0405	324
0	22729	0.040625	325
0	22797	0.04075	326
0	22869	0.040875	327
0	22937	0.041	328
0	23009	0.041125	329
0	23077	0.04125	330
0	23149	0.041375	331
0	23217	0.0415	332
0	23289	0.041625	333
0	23357	0.04175	334
0	23429	0.041875	335
0	23497	0.042	336
0	23569	0.042125	337
0	23637	0.04225	338
0	23709	0.042375	339
0	23777	0.0425	340
0	23849	0.042625	341
0	23917	0.04275	342
0	23989	0.042875	343
0	24057	0.043	344
0	24129	0.043125	345
0	24197	0.04325	346
0	24269	0.043375	347
0	24337	0.0435	348
0	24409	0.043625	349
0	24477	0.04375	350
0	24549	0.043875	351
0	24617	0.044	352
0	24689	0.044125	353
0	24757	0.04425	354
0	24829	0.044375	355
0	24897	0.0445	356
0	24969	0.044625	357
0	25037	0.04475	358
0	25109	0.044875	359
0	25177	0.045	360
0	25249	0.045125	361
0	25317	0.04525	362
0	25389	0.045375	363
0	25457	0.0455	364
0	25529	0.045625	365
0	25597	0.04575	366
0	25669	0.045875	367
0	25737	0.046	368
0	25809	0.046125	369
0	25877	0.04625	370
0	25949	0.046375	371
0	26017	0.0465	372
0	26089	0.046625	373
0	26157	0.04675	374
0	26229	0.046875	375
0	26297	0.047	376
0	26369	0.047125	377
0	26437	0.04725	378
0	26509	0.047375	379
0	26577	0.0475	380
0	26649	0.047625	381
0	26717	0.04775	382
0	26789	0.047875	383
0	26857	0.048	384
0	26929	0.048125	385
0	26997	0.04825	386
0	27069	0.048375	387
0	27137	0.0485	388
0	27209	0.048625	389
0	27277	0.04875	390
0	27349	0.048875	391
0	27417	0.049	392
0	27489	0.049125	393
0	27557	0.04925	394
0	27629	0.049375	395
0	27697	0.0495	396
0	27769	0.049625	397
0	27837	0.04975	398
0	27909	0.049875	399
0	27977	0.05	400
0	28049	0.050125	401
0	28117	0.05025	402
0	28189	0.050375	403
0	28257	0.0505	404
0	28329	0.050625	405
0	28397	0.05075	406
0	28469	0.050875	407
0	28537	0.051	408
0	28609	0.051125	409
0	28677	0.05125	410
0	28749	0.051375	411
0	28817	0.0515	412
0	28889	0.051625	413
0	28957	0.05175	414
0	29029	0.051875	415
0	29097	0.052	416
0	29169	0.052125	417
0	29237	0.05225	418
0	29309	0.052375	419
0	29377	0.0525	420
0	29449	0.052625	421
0	29517	0.05275	422
0	29589	0.052875	423
0	29657	0.053	424
0	29729	0.053125	425
0	29797	0.05325	426
0	29869	0.053375	427
0	29937	0.0535	428
0	30009	0.053625	429
0	30077	0.05375	430
0	30149	0.053875	431
0	30217	0.054	432
0	30289	0.054125	433
0	30357	0.05425	434
0	30429	0.054375	435
0	30497	0.0545	436
0	30569	0.054625	437
0	30637	0.05475	438
0	30709	0.054875	439
0	30777	0.055	440
0	30849	0.055125	441
0	30917	0.05525	442
0	30989	0.055375	443
0	31057	0.0555	444
0	31129	0.055625	445
0	31197	0.05575	446
0	31269	0.055875	447
0	31337	0.056	448
0	31409	0.056125	449
0	31477	0.05625	450
0	31549	0.056375	451
0	31617	0.0565	452
0	31689	0.056625	453
0	31757	0.05675	454
0	31829	0.056875	455
0	31897	0.057	456
0	31969	0.057125	457
0	32037	0.05725	458
0	32109	0.057375	459
0	32177	0.0575	460
0	32249	0.057625	461
0	32317	0.05775	462
0	32389	0.057875	463
0	32457	0.058	464
0	32529	0.058125	465
0	32597	0.05825	466
0	32669	0.058375	467
0	32737	0.0585	468
0	32809	0.058625	469
0	32877	0.05875	470
0	32949	0.058875	471
0	33017	0.059	472
0	33089	0.059125	473
0	33157	0.05925	474
0	33229	0.059375	475
0	33297	0.0595	476
0	33369	0.059625	477
0	33437	0.05975	478
0	33509	0.059875	479
0	33577	0.06	480
0	33649	0.060125	481
0	33717	0.06025	482
0	33789	0.060375	483
0	33857	0.0605	484
0	33929	0.060625	485
0	33997	0.06075	486
0	34069	0.060875	487
0	34137	0.061	488
0	34209	0.061125	489
0	34277	0.06125	490
0	34349	0.061375	491
0	34417	0.0615	492
0	34489	0.061625	493
0	34557	0.06175	494
0	34629	0.061875	495
0	34697	0.062	496
0	34769	0.062125	497
0	34837	0.06225	498
0	34909	0.062375	499
0	34977	0.0625	500
0	35049	0.062625	501
0	35117	0.06275	502
0	35189	0.062875	503
0	35257	0.063	504
0	35329	0.063125	505
0	35397	0.06325	506
0	35469	0.063375	507
0	35537	0.0635	508
0	35609	0.063625	509
0	35677	0.06375	510
0	35749	0.063875	511
0	35817	0.064	512
0	35889	0.064125	513
0	35957	0.06425	514
0	36029	0.064375	515
0	36097	0.0645	516
0	36169	0.064625	517
0	36237	0.06475	518
0	36309	0.064875	519
0	36377	0.065	520
0	36449	0.065125	521
0	36517	0.06525	522
0	36589	0.065375	523
0	36657	0.0655	524
0	36729	0.065625	525
0	36797	0.06575	526
0	36869	0.065875	527
0	36937	0.066	528
0	37009	0.066125	529
0	37077	0.06625	530
0	37149	0.066375	531
0	37217	0.0665	532
0	37289	0.066625	533
0	37357	0.06675	534
0	37429	0.066875	535
0	37497	0.067	536
0	37569	0.067125	537
0	37637	0.06725	538
0	37709	0.067375	539
0	37777	0.0675	540
0	37849	0.067625	541
0	37917	0.06775	542
0	37989	0.067875	543
0	38057	0.068	544
0	38129	0.068125	545
0	38197	0.06825	546
0	38269	0.068375	547
0	38337	0.0685	548
0	38409	0.068625	549
0	38477	0.06875	550
0	38549	0.068875	551
0	38617	0.069	552
0	38689	0.069125	553
0	38757	0.06925	554
0	38829	0.069375	555
0	38897	0.0695	556
0	38969	0.069625	557
0	39037	0.06975	558
0	39109	0.069875	559
0	39177	0.07	560
0	39249	0.070125	561
0	39317	0.07025	562
0	39389	0.070375	563
0	39457	0.0705	564
0	39529	0.070625	565
0	39597	0.07075	566
0	39669	0.070875	567
0	39737	0.071	568
0	39809	0.071125	569
0	39877	0.07125	570
0	39949	0.071375	571
0	40017	0.0715	572
0	40089	0.071625	573
0	40157	0.07175	574
0	40229	0.071875	575
0	40297	0.072	576
0	40369	0.072125	577
0	40437	0.07225	578
0	40509	0.072375	579
0	40577	0.0725	580
0	40649	0.072625	581
0	40717	0.07275	582
0	40789	0.072875	583
0	40857	0.073	584
0	40929	0.073125	585
0	40997	0.07325	586
0	41069	0.073375	587
0	41137	0.0735	588
0	41209	0.073625	589
0	41277	0.07375	590
0	41349	0.073875	591
0	41417	0.074	592
0	41489	0.074125	593
0	41557	0.07425	594
0	41629	0.074375	595
0	41697	0.0745	596
0	41769	0.074625	597
0	41837	0.07475	598
0	41909	0.074875	599
0	41977	0.075	600
0	42049	0.075125	601
0	42117	0.07525	602
0	42189	0.075375	603
0	42257	0.0755	604
0	42329	0.075625	605
0	42397	0.07575	606
0	42469	0.075875	607
0	42537	0.076	608
0	42609	0.076125	609
0	42677	0.07625	610
0	42749	0.076375	611
0	42817	0.0765	612
0	42889	0.076625	613
0	42957	0.07675	614
0	43029	0.076875	615
0	43097	0.077	616
0	43169	0.077125	617
0	43237	0.07725	618
0	43309	0.077375	619
0	43377	0.0775	620
0	43449	0.077625	621
0	43517	0.07775	622
0	43589	0.077875	623
0	43657	0.078	624
0	43729	0.078125	625
0	43797	0.07825	626
0	43869	0.078375	627
0	43937	0.0785	628
0	44009	0.078625	629
0	44077	0.07875	630
0	44149	0.078875	631
0	44217	0.079	632
0	44289	0.079125	633
0	44357	0.07925	634
0	44429	0.079375	635
0	44497	0.0795	636
0	44569	0.079625	637
0	44637	0.07975	638
0	44709	0.079875	639
0	44777	0.08	640
0	44849	0.080125	641
0	44917	0.08025	642
0	44989	0.080375	643
0	45057	0.0805	644
0	45129	0.080625	645
0	45197	0.08075	646
0	45269	0.080875	647
0	45337	0.081	648
0	45409	0.081125	649
0	45477	0.08125	650
0	45549	0.081375	651
0	45617	0.0815	652
0	45689	0.081625	653
0	45757	0.08175	654
0	45829	0.081875	655
0	45897	0.082	656
0	45969	0.082125	657
0	46037	0.08225	658
0	46109	0.082375	659
0	46177	0.0825	660
0	46249	0.082625	661
0	46317	0.08275	662
0	46389	0.082875	663
0	46457	0.083	664
0	46529	0.083125	665
0	46597	0.08325	666
0	46669	0.083375	667
0	46737	0.0835	668
0	46809	0.083625	669
0	46877	0.08375	670
0	46949	0.083875	671
0	47017	0.084	672
0	47089	0.084125	673
0	47157	0.08425	674
0	47229	0.084375	675
0	47297	0.0845	676
0	47369	0.084625	677
0	47437	0.08475	678
0	47509	0.084875	679
0	47577	0.085	680
0	47649	0.085125	681
0	47717	0.08525	682
0	47789	0.085375	683
0	47857	0.0855	684
0	47929	0.085625	685
0	47997	0.08575	686
0	48069	0.085875	687
0	48137	0.086	688
0	48209	0.086125	689
0	48277	0.08625	690
0	48349	0.086375	691
0	48417	0.0865	692
0	48489	0.086625	693
0	48557	0.08675	694
0	48629	0.086875	695
0	48697	0.087	696
0	48769	0.087125	697
0	48837	0.08725	698
0	48909	0.087375	699
0	48977	0.0875	700
0	49049	0.087625	701
0	49117	0.08775	702
0	49189	0.087875	703
0	49257	0.088	704
0	49329	0.088125	705
0	49397	0.08825	706
0	49469	0.088375	707
0	49537	0.0885	708
0	49609	0.088625	709
0	49677	0.08875	710
0	49749	0.088875	711
0	49817	0.089	712
0	49889	0.089125	713
0	49957	0.08925	714
0	50029	0.089375	715
0	50097	0.0895	716
0	50169	0.089625	717
0	50237	0.08975	718
0	50309	0.089875	719
0	50377	0.09	720
0	50449	0.090125	721
0	50517	0.09025	722
0	50589	0.090375	723
0	50657	0.0905	724
0	50729	0.090625	725
0	50797	0.09075	726
0	50869	0.090875	727
0	50937	0.091	728
0	51009	0.091125	729
0	51077	0.09125	730
0	51149	0.091375	731
0	51217	0.0915	732
0	51289	0.091625	733
0	51357	0.09175	734
0	51429	0.091875	735
0	51497	0.092	736
0	51569	0.092125	737
0	51637	0.09225	738
0	51709	0.092375	739
0	51777	0.0925	740
0	51849	0.092625	741
0	51917	0.09275	742
0	51989	0.092875	743
0	52057	0.093	744
0	52129	0.093125	745
0	52197	0.09325	746
0	52269	0.093375	747
0	52337	0.0935	748
0	52409	0.093625	749
0	52477	0.09375	750
0	52549	0.093875	751
0	52617	0.094	752
0	52689	0.094125	753
0	52757	0.09425	754
0	52829	0.094375	755
0	52897	0.0945	756
0	52969	0.094625	757
0	53037	0.09475	758
0	53109	0.094875	759
0	53177	0.095	760
0	53249	0.095125	761
0	53317	0.09525	762
0	53389	0.095375	763
0	53457	0.0955	764
0	53529	0.095625	765
0	53597	0.09575	766
0	53669	0.095875	767
0	53737	0.096	768
0	53809	0.096125	769
0	53877	0.09625	770
0	53949	0.096375	771
0	54017	0.0965	772
0	54089	0.096625	773
0	54157	0.09675	774
0	54229	0.096875	775
0	54297	0.097	776
0	54369	0.097125	777
0	54437	0.09725	778
0	54509	0.097375	779
0	54577	0.0975	780
0	54649	0.097625	781
0	54717	0.09775	782
0	54789	0.097875	783
0	54857	0.098	784
0	54929	0.098125	785
0	54997	0.09825	786
0	55069	0.098375	787
0	55137	0.0985	788
0	55209	0.098625	789
0	55277	0.09875	790
0	55349	0.098875	791
0	55417	0.099	792
0	55489	0.099125	793
0	55557	0.09925	794
0	55629	0.099375	795
0	55697	0.0995	796
0	55769	0.099625	797
0	55837	0.09975	798
0	55909	0.099875	799
0	55977	0.1	800
0	56049	0.100125	801
0	56117	0.10025	802
0	56189	0.100375	803
0	56257	0.1005	804
0	56329	0.100625	805
0	56397	0.10075	806
0	56469	0.100875	807
0	56537	0.101	808
0	56609	0.101125	809
0	56677	0.10125	810
0	56749	0.101375	811
0	56817	0.1015	812
0	56889	0.101625	813
0	56957	0.10175	814
0	57029	0.101875	815
0	57097	0.102	816
0	57169	0.102125	817
0	57237	0.10225	818
0	57309	0.102375	819
0	57377	0.1025	820
0	57449	0.102625	821
0	57517	0.10275	822
0	57589	0.102875	823
0	57657	0.103	824
0	57729	0.103125	825
0	57797	0.10325	826
0	57869	0.103375	827
0	57937	0.1035	828
0	58009	0.103625	829
0	58077	0.10375	830
0	58149	0.103875	831
0	58217	0.104	832
0	58289	0.104125	833
0	58357	0.10425	834
0	58429	0.104375	835
0	58497	0.1045	836
0	58569	0.104625	837
0	58637	0.10475	838
0	58709	0.104875	839
0	58777	0.105	840
0	58849	0.105125	841
0	58917	0.10525	842
0	58989	0.105375	843
0	59057	0.1055	844
0	59129	0.105625	845
0	59197	0.10575	846
0	59269	0.105875	847
0	59337	0.106	848
0	59409	0.106125	849
0	59477	0.10625	850
0	59549	0.106375	851
0	59617	0.1065	852
0	59689	0.106625	853
0	59757	0.10675	854
0	59829	0.106875	855
0	59897	0.107	856
0	59969	0.107125	857
0	60037	0.10725	858
0	60109	0.107375	859
0	60177	0.1075	860
0	60249	0.107625	861
0	60317	0.10775	862
0	60389	0.107875	863
0	60457	0.108	864
0	60529	0.108125	865
0	60597	0.10825	866
0	60669	0.108375	867
0	60737	0.1085	868
0	60809	0.108625	869
0	60877	0.10875	870
0	60949	0.108875	871
0	61017	0.109	872
0	61089	0.109125	873
0	61157	0.10925	874
0	61229	0.109375	875
0	61297	0.1095	876
0	61369	0.109625	877
0	61437	0.10975	878
0	61509	0.109875	879
0	61577	0.11	880
0	61649	0.110125	881
0	61717	0.11025	882
0	61789	0.110375	883
0	61857	0.1105	884
0	61929	0.110625	885
0	61997	0.11075	886
0	62069	0.110875	887
0	62137	0.111	888
0	62209	0.111125	889
0	62277	0.11125	890
0	62349	0.111375	891
0	62417	0.1115	892
0	62489	0.111625	893
0	62557	0.11175	894
0	62629	0.111875	895
0	62697	0.112	896
0	62769	0.112125	897
0	62837	0.11225	898
0	62909	0.112375	899
0	62977	0.1125	900
0	63049	0.112625	901
0	63117	0.11275	902
0	63189	0.112875	903
0	63257	0.113	904
0	63329	0.113125	905
0	63397	0.11325	906
0	63469	0.113375	907
0	63537	0.1135	908
0	63609	0.113625	909
0	63677	0.11375	910
0	63749	0.113875	911
0	63817	0.114	912
0	63889	0.114125	913
0	63957	0.11425	914
0	64029	0.114375	915
0	64097	0.1145	916
0	64169	0.114625	917
0	64237	0.11475	918
0	64309	0.114875	919
0	64377	0.115	920
0	64449	0.115125	921
0	64517	0.11525	922
0	64589	0.115375	923
0	64657	0.1155	924
0	64729	0.115625	925
0	64797	0.11575	926
0	64869	0.115875	927
0	64937	0.116	928
0	65009	0.116125	929
0	65077	0.11625	930
0	65149	0.116375	931
0	65217	0.1165	932
0	65289	0.116625	933
0	65357	0.11675	934
0	65429	0.116875	935
0	65497	0.117	936
0	65569	0.117125	937
0	65637	0.11725	938
0	65709	0.117375	939
0	65777	0.1175	940
0	65849	0.117625	941
0	65917	0.11775	942
0	65989	0.117875	943
0	66057	0.118	944
0	66129	0.118125	945
0	66197	0.11825	946
0	66269	0.118375	947
0	66337	0.1185	948
0	66409	0.118625	949
0	66477	0.11875	950
0	66549	0.118875	951
0	66617	0.119	952
0	66689	0.119125	953
0	66757	0.11925	954
0	66829	0.119375	955
0	66897	0.1195	956
0	66969	0.119625	957
0	67037	0.11975	958
0	67109	0.119875	959
0	67177	0.12	960
0	67249	0.120125	961
0	67317	0.12025	962
0	67389	0.120375	963
0	67457	0.1205	964
0	67529	0.120625	965
0	67597	0.12075	966
0	67669	0.120875	967
0	67737	0.121	968
0	67809	0.121125	969
0	67877	0.12125	970
0	67949	0.121375	971
0	68017	0.1215	972
0	68089	0.121625	973
0	68157	0.12175	974
0	68229	0.121875	975
0	68297	0.122	976
0	68369	0.122125	977
0	68437	0.12225	978
0	68509	0.122375	979
0	68577	0.1225	980
0	68649	0.122625	981
0	68717	0.12275	982
0	68789	0.122875	983
0	68857	0.123	984
0	68929	0.123125	985
0	68997	0.12325	986
0	69069	0.123375	987
0	69137	0.1235	988
0	69209	0.123625	989
0	69277	0.12375	990
0	69349	0.123875	991
0	69417	0.124	992
0	69489	0.124125	993
0	69557	0.12425	994
0	69629	0.124375	995
0	69697	0.1245	996
0	69769	0.124625	997
0	69837	0.12475	998
0	69909	0.124875	999
0	69977	0.125	1000
0	70049	0.125125	1001
0	70117	0.12525	1002
0	70189	0.125375	1003
0	70257	0.1255	1004
0	70329	0.125625	1005
0	70397	0.12575	1006
0	70469	0.125875	1007
0	70537	0.126	1008
0	70609	0.126125	1009
0	70677	0.12625	1010
0	70749	0.126375	1011
0	70817	0.1265	1012
0	70889	0.126625	1013
0	70957	0.12675	1014
0	71029	0.126875	1015
0	71097	0.127	1016
0	71169	0.127125	1017
0	71237	0.12725	1018
0	71309	0.127375	1019
0	71377	0.1275	1020
0	71449	0.127625	1021
0	71517	0.12775	1022
0	71589	0.127875	1023
0	71657	0.128	1024
0	71729	0.128125	1025
0	71797	0.12825	1026
0	71869	0.128375	1027
0	71937	0.1285	1028
0	72009	0.128625	1029
0	72077	0.12875	1030
0	72149	0.128875	1031
0	72217	0.129	1032
0	72289	0.129125	1033
0	72357	0.12925	1034
0	72429	0.129375	1035
0	72497	0.1295	1036
0	72569	0.129625	1037
0	72637	0.12975	1038
0	72709	0.129875	1039
0	72777	0.13	1040
0	72849	0.130125	1041
0	72917	0.13025	1042
0	72989	0.130375	1043
0	73057	0.1305	1044
0	73129	0.130625	1045
0	73197	0.13075	1046
0	73269	0.130875	1047
0	73337	0.131	1048
0	73409	0.131125	1049
0	73477	0.13125	1050
0	73549	0.131375	1051
0	73617	0.1315	1052
0	73689	0.131625	1053
0	73757	0.13175	1054
0	73829	0.131875	1055
0	73897	0.132	1056
0	73969	0.132125	1057
0	74037	0.13225	1058
0	74109	0.132375	1059
0	74177	0.1325	1060
0	74249	0.132625	1061
0	74317	0.13275	1062
0	74389	0.132875	1063
0	74457	0.133	1064
0	74529	0.133125	1065
0	74597	0.13325	1066
0	74669	0.133375	1067
0	74737	0.1335	1068
0	74809	0.133625	1069
0	74877	0.13375	1070
0	74949	0.133875	1071
0	75017	0.134	1072
0	75089	0.134125	1073
0	75157	0.13425	1074
0	75229	0.134375	1075
0	75297	0.1345	1076
0	75369	0.134625	1077
0	75437	0.13475	1078
0	75509	0.134875	1079
0	75577	0.135	1080
0	75649	0.135125	1081
0	75717	0.13525	1082
0	75789	0.135375	1083
0	75857	0.1355	1084
0	75929	0.135625	1085
0	75997	0.13575	1086
0	76069	0.135875	1087
0	76137	0.136	1088
0	76209	0.136125	1089
0	76277	0.13625	1090
0	76349	0.136375	1091
0	76417	0.1365	1092
0	76489	0.136625	1093
0	76557	0.13675	1094
0	76629	0.136875	1095
0	76697	0.137	1096
0	76769	0.137125	1097
0	76837	0.13725	1098
0	76909	0.137375	1099
0	76977	0.1375	1100
0	77049	0.137625	1101
0	77117	0.13775	1102
0	77189	0.137875	1103
0	77257	0.138	1104
0	77329	0.138125	1105
0	77397	0.13825	1106
0	77469	0.138375	1107
0	77537	0.1385	1108
0	77609	0.138625	1109
0	77677	0.13875	1110
0	77749	0.138875	1111
0	77817	0.139	1112
0	77889	0.139125	1113
0	77957	0.13925	1114
0	78029	0.139375	1115
0	78097	0.1395	1116
0	78169	0.139625	1117
0	78237	0.13975	1118
0	78309	0.139875	1119
0	78377	0.14	1120
0	78449	0.140125	1121
0	78517	0.14025	1122
0	78589	0.140375	1123
0	78657	0.1405	1124
0	78729	0.140625	1125
0	78797	0.14075	1126
0	78869	0.140875	1127
0	78937	0.141	1128
0	79009	0.141125	1129
0	79077	0.14125	1130
0	79149	0.141375	1131
0	79217	0.1415	1132
0	79289	0.141625	1133
0	79357	0.14175	1134
0	79429	0.141875	1135
0	79497	0.142	1136
0	79569	0.142125	1137
0	79637	0.14225	1138
0	79709	0.142375	1139
0	79777	0.1425	1140
0	79849	0.142625	1141
0	79917	0.14275	1142
0	79989	0.142875	1143
0	80057	0.143	1144
0	80129	0.143125	1145
0	80197	0.14325	1146
0	80269	0.143375	1147
0	80337	0.1435	1148
0	80409	0.143625	1149
0	80477	0.14375	1150
0	80549	0.143875	1151
0	80617	0.144	1152
0	80689	0.144125	1153
0	80757	0.14425	1154
0	80829	0.144375	1155
0	80897	0.1445	1156
0	80969	0.144625	1157
0	81037	0.14475	1158
0	81109	0.144875	1159
0	81177	0.145	1160
0	81249	0.145125	1161
0	81317	0.14525	1162
0	81389	0.145375	1163
0	81457	0.1455	1164
0	81529	0.145625	1165
0	81597	0.14575	1166
0	81669	0.145875	1167
0	81737	0.146	1168
0	81809	0.146125	1169
0	81877	0.14625	1170
0	81949	0.146375	1171
0	82017	0.1465	1172
0	82089	0.146625	1173
0	82157	0.14675	1174
0	82229	0.146875	1175
0	82297	0.147	1176
0	82369	0.147125	1177
0	82437	0.14725	1178
0	82509	0.147375	1179
0	82577	0.1475	1180
0	82649	0.147625	1181
0	82717	0.14775	1182
0	82789	0.147875	1183
0	82857	0.148	1184
0	82929	0.148125	1185
0	82997	0.14825	1186
0	83069	0.148375	1187
0	83137	0.1485	1188
0	83209	0.148625	1189
0	83277	0.14875	1190
0	83349	0.148875	1191
0	83417	0.149	1192
0	83489	0.149125	1193
0	83557	0.14925	1194
0	83629	0.149375	1195
0	83697	0.1495	1196
0	83769	0.149625	1197
0	83837	0.14975	1198
0	83909	0.149875	1199
0	83977	0.15	1200
0	84049	0.150125	1201
0	84117	0.15025	1202
0	84189	0.150375	1203
0	84257	0.1505	1204
0	84329	0.150625	1205
0	84397	0.15075	1206
0	84469	0.150875	1207
0	84537	0.151	1208
0	84609	0.151125	1209
0	84677	0.15125	1210
0	84749	0.151375	1211
0	84817	0.1515	1212
0	84889	0.151625	1213
0	84957	0.15175	1214
0	85029	0.151875	1215
0	85097	0.152	1216
0	85169	0.152125	1217
0	85237	0.15225	1218
0	85309	0.152375	1219
0	85377	0.1525	1220
0	85449	0.152625	1221
0	85517	0.15275	1222
0	85589	0.152875	1223
0	85657	0.153	1224
0	85729	0.153125	1225
0	85797	0.15325	1226
0	85869	0.153375	1227
0	85937	0.1535	1228
0	86009	0.153625	1229
0	86077	0.15375	1230
0	86149	0.153875	1231
0	86217	0.154	1232
0	86289	0.154125	1233
0	86357	0.15425	1234
0	86429	0.154375	1235
0	86497	0.1545	1236
0	86569	0.154625	1237
0	86637	0.15475	1238
0	86709	0.154875	1239
0	86777	0.155	1240
0	86849	0.155125	1241
0	86917	0.15525	1242
0	86989	0.155375	1243
0	87057	0.1555	1244
0	87129	0.155625	1245
0	87197	0.15575	1246
0	87269	0.155875	1247
0	87337	0.156	1248
0	87409	0.156125	1249
0	87477	0.15625	1250
0	87549	0.156375	1251
0	87617	0.1565	1252
0	87689	0.156625	1253
0	87757	0.15675	1254
0	87829	0.156875	1255
0	87897	0.157	1256
0	87969	0.157125	1257
0	88037	0.15725	1258
0	88109	0.157375	1259
0	88177	0.1575	1260
0	88249	0.157625	1261
0	88317	0.15775	1262
0	88389	0.157875	1263
0	88457	0.158	1264
0	88529	0.158125	1265
0	88597	0.15825	1266
0	88669	0.158375	1267
0	88737	0.1585	1268
0	88809	0.158625	1269
0	88877	0.15875	1270
0	88949	0.158875	1271
0	89017	0.159	1272
0	89089	0.159125	1273
0	89157	0.15925	1274
0	89229	0.159375	1275
0	89297	0.1595	1276
0	89369	0.159625	1277
0	89437	0.15975	1278
0	89509	0.159875	1279
0	89577	0.16	1280
0	89649	0.160125	1281
0	89717	0.16025	1282
0	89789	0.160375	1283
0	89857	0.1605	1284
0	89929	0.160625	1285
0	89997	0.16075	1286
0	90069	0.160875	1287
0	90137	0.161	1288
0	90209	0.161125	1289
0	90277	0.16125	1290
0	90349	0.161375	1291
0	90417	0.1615	1292
0	90489	0.161625	1293
0	90557	0.16175	1294
0	90629	0.161875	1295
0	90697	0.162	1296
0	90769	0.162125	1297
0	90837	0.16225	1298
0	90909	0.162375	1299
0	90977	0.1625	1300
0	91049	0.162625	1301
0	91117	0.16275	1302
0	91189	0.162875	1303
0	91257	0.163	1304
0	91329	0.163125	1305
0	91397	0.16325	1306
0	91469	0.163375	1307
0	91537	0.1635	1308
0	91609	0.163625	1309
0	91677	0.16375	1310
0	91749	0.163875	1311
0	91817	0.164	1312
0	91889	0.164125	1313
0	91957	0.16425	1314
0	92029	0.164375	1315
0	92097	0.1645	1316
0	92169	0.164625	1317
0	92237	0.16475	1318
0	92309	0.164875	1319
0	92377	0.165	1320
0	92449	0.165125	1321
0	92517	0.16525	1322
0	92589	0.165375	1323
0	92657	0.1655	1324
0	92729	0.165625	1325
0	92797	0.16575	1326
0	92869	0.165875	1327
0	92937	0.166	1328
0	93009	0.166125	1329
0	93077	0.16625	1330
0	93149	0.166375	1331
0	93217	0.1665	1332
0	93289	0.166625	1333
0	93357	0.16675	1334
0	93429	0.166875	1335
0	93497	0.167	1336
0	93569	0.167125	1337
0	93637	0.16725	1338
0	93709	0.167375	1339
0	93777	0.1675	1340
0	93849	0.167625	1341
0	93917	0.16775	1342
0	93989	0.167875	1343
0	94057	0.168	1344
0	94129	0.168125	1345
0	94197	0.16825	1346
0	94269	0.168375	1347
0	94337	0.1685	1348
0	94409	0.168625	1349
0	94477	0.16875	1350
0	94549	0.168875	1351
0	94617	0.169	1352
0	94689	0.169125	1353
0	94757	0.16925	1354
0	94829	0.169375	1355
0	94897	0.1695	1356
0	94969	0.169625	1357
0	95037	0.16975	1358
0	95109	0.169875	1359
0	95177	0.17	1360
0	95249	0.170125	1361