version 3
run STM-4-0-20250422-11:31:17-19524
attr configname STM-4
attr datetime 20250422-11:31:17
attr datetimef 20250422-113117
attr experiment STM-4
attr inifile omnetpp.ini
attr iterationvars ""
attr iterationvarsd ""
attr iterationvarsf ""
attr measurement ""
attr network p2pNetwork
attr processid 19524
attr repetition 0
attr replication #0
attr resultdir results
attr runnumber 0
attr seedset 0
config image-path ../../../../../images
config *.visualizer.*.enabled true
config *.visualizer.*.animationSpeed 20
config *.visualizer.*.displayRoutes false
config *.visualizer.*.displayPacketDrops true
config *.visualizer.*.displayLabels true
config **.scalar-recording true
config **.vector-recording true
config *.lteA.stmLevel 4
config *.lteB.stmLevel 4
config *.lteA.numTributaries 1
config *.lteB.numTributaries 1
config *.sourceA.packetInterval 25us
config *.sourceA.packetSize 1944
config *.sourceB.packetInterval 25us
config *.sourceB.packetSize 1944
config network p2pNetwork
config sim-time-limit 1s
config *.visualizer.*.enabled true
config *.visualizer.*.animationSpeed 20
config *.visualizer.*.displayRoutes false
config *.visualizer.*.displayPacketDrops true
config *.visualizer.*.displayLabels true
config **.scalar-recording true
config **.vector-recording true

vector 0 p2pNetwork.lteA stmWorkingSent:vector ETV
attr recordingmode vector
attr source stmWorkingSent
attr title "STM sent on working line"
vector 1 p2pNetwork.lteA stmProtectionSent:vector ETV
attr recordingmode vector
attr source stmProtectionSent
attr title "STM sent on protection line"
vector 2 p2pNetwork.lteA stmWorkingReceived:vector ETV
attr recordingmode vector
attr source stmWorkingReceived
attr title "STM received on working line"
vector 3 p2pNetwork.lteA stmProtectionReceived:vector ETV
attr recordingmode vector
attr source stmProtectionReceived
attr title "STM received on protection line"
vector 4 p2pNetwork.lteA loadSTM:vector ETV
attr recordingmode vector
attr source loadSTM
attr title "load STM"
vector 5 p2pNetwork.lteB stmWorkingSent:vector ETV
attr recordingmode vector
attr source stmWorkingSent
attr title "STM sent on working line"
vector 6 p2pNetwork.lteB stmProtectionSent:vector ETV
attr recordingmode vector
attr source stmProtectionSent
attr title "STM sent on protection line"
vector 7 p2pNetwork.lteB stmWorkingReceived:vector ETV
attr recordingmode vector
attr source stmWorkingReceived
attr title "STM received on working line"
vector 8 p2pNetwork.lteB stmProtectionReceived:vector ETV
attr recordingmode vector
attr source stmProtectionReceived
attr title "STM received on protection line"
vector 9 p2pNetwork.lteB loadSTM:vector ETV
attr recordingmode vector
attr source loadSTM
attr title "load STM"
0	17	0.000125	1
0	49	0.00025	2
0	83	0.000375	3
0	117	0.0005	4
0	151	0.000625	5
0	185	0.00075	6
0	219	0.000875	7
0	253	0.001	8
0	287	0.001125	9
0	321	0.00125	10
0	355	0.001375	11
0	389	0.0015	12
0	423	0.001625	13
0	457	0.00175	14
0	491	0.001875	15
0	525	0.002	16
0	559	0.002125	17
0	593	0.00225	18
0	627	0.002375	19
0	661	0.0025	20
0	695	0.002625	21
0	729	0.00275	22
0	763	0.002875	23
0	797	0.003	24
0	831	0.003125	25
0	865	0.00325	26
0	899	0.003375	27
0	933	0.0035	28
0	967	0.003625	29
0	1001	0.00375	30
0	1035	0.003875	31
0	1069	0.004	32
0	1103	0.004125	33
0	1137	0.00425	34
0	1171	0.004375	35
0	1205	0.0045	36
0	1239	0.004625	37
0	1273	0.00475	38
0	1307	0.004875	39
0	1341	0.005	40
0	1375	0.005125	41
0	1409	0.00525	42
0	1443	0.005375	43
0	1477	0.0055	44
0	1511	0.005625	45
0	1545	0.00575	46
0	1579	0.005875	47
0	1613	0.006	48
0	1647	0.006125	49
0	1681	0.00625	50
0	1715	0.006375	51
0	1749	0.0065	52
0	1783	0.006625	53
0	1817	0.00675	54
0	1851	0.006875	55
0	1885	0.007	56
0	1919	0.007125	57
0	1953	0.00725	58
0	1987	0.007375	59
0	2021	0.0075	60
0	2055	0.007625	61
0	2089	0.00775	62
0	2123	0.007875	63
0	2157	0.008	64
0	2191	0.008125	65
0	2225	0.00825	66
0	2259	0.008375	67
0	2293	0.0085	68
0	2327	0.008625	69
0	2361	0.00875	70
0	2395	0.008875	71
0	2429	0.009	72
0	2463	0.009125	73
0	2497	0.00925	74
0	2531	0.009375	75
0	2565	0.0095	76
0	2599	0.009625	77
0	2633	0.00975	78
0	2667	0.009875	79
0	2701	0.01	80
0	2735	0.010125	81
0	2769	0.01025	82
0	2803	0.010375	83
0	2837	0.0105	84
0	2871	0.010625	85
0	2905	0.01075	86
0	2939	0.010875	87
0	2973	0.011	88
0	3007	0.011125	89
0	3041	0.01125	90
0	3075	0.011375	91
0	3109	0.0115	92
0	3143	0.011625	93
0	3177	0.01175	94
0	3211	0.011875	95
0	3245	0.012	96
0	3279	0.012125	97
0	3313	0.01225	98
0	3347	0.012375	99
0	3381	0.0125	100
0	3415	0.012625	101
0	3449	0.01275	102
0	3483	0.012875	103
0	3517	0.013	104
0	3551	0.013125	105
0	3585	0.01325	106
0	3619	0.013375	107
0	3653	0.0135	108
0	3687	0.013625	109
0	3721	0.01375	110
0	3755	0.013875	111
0	3789	0.014	112
0	3823	0.014125	113
0	3857	0.01425	114
0	3891	0.014375	115
0	3925	0.0145	116
0	3959	0.014625	117
0	3993	0.01475	118
0	4027	0.014875	119
0	4061	0.015	120
0	4095	0.015125	121
0	4129	0.01525	122
0	4163	0.015375	123
0	4197	0.0155	124
0	4231	0.015625	125
0	4265	0.01575	126
0	4299	0.015875	127
0	4333	0.016	128
0	4367	0.016125	129
0	4401	0.01625	130
0	4435	0.016375	131
0	4469	0.0165	132
0	4503	0.016625	133
0	4537	0.01675	134
0	4571	0.016875	135
0	4605	0.017	136
0	4639	0.017125	137
0	4673	0.01725	138
0	4707	0.017375	139
0	4741	0.0175	140
0	4775	0.017625	141
0	4809	0.01775	142
0	4843	0.017875	143
0	4877	0.018	144
0	4911	0.018125	145
0	4945	0.01825	146
0	4979	0.018375	147
0	5013	0.0185	148
0	5047	0.018625	149
0	5081	0.01875	150
0	5115	0.018875	151
0	5149	0.019	152
0	5183	0.019125	153
0	5217	0.01925	154
0	5251	0.019375	155
0	5285	0.0195	156
0	5319	0.019625	157
0	5353	0.01975	158
0	5387	0.019875	159
0	5421	0.02	160
0	5455	0.020125	161
0	5489	0.02025	162
0	5523	0.020375	163
0	5557	0.0205	164
0	5591	0.020625	165
0	5625	0.02075	166
0	5659	0.020875	167
0	5693	0.021	168
0	5727	0.021125	169
0	5761	0.02125	170
0	5795	0.021375	171
0	5829	0.0215	172
0	5863	0.021625	173
0	5897	0.02175	174
0	5931	0.021875	175
0	5965	0.022	176
0	5999	0.022125	177
0	6033	0.02225	178
0	6067	0.022375	179
0	6101	0.0225	180
0	6135	0.022625	181
0	6169	0.02275	182
0	6203	0.022875	183
0	6237	0.023	184
0	6271	0.023125	185
0	6305	0.02325	186
0	6339	0.023375	187
0	6373	0.0235	188
0	6407	0.023625	189
0	6441	0.02375	190
0	6475	0.023875	191
0	6509	0.024	192
0	6543	0.024125	193
0	6577	0.02425	194
0	6611	0.024375	195
0	6645	0.0245	196
0	6679	0.024625	197
0	6713	0.02475	198
0	6747	0.024875	199
0	6781	0.025	200
0	6815	0.025125	201
0	6849	0.02525	202
0	6883	0.025375	203
0	6917	0.0255	204
0	6951	0.025625	205
0	6985	0.02575	206
0	7019	0.025875	207
0	7053	0.026	208
0	7087	0.026125	209
0	7121	0.02625	210
0	7155	0.026375	211
0	7189	0.0265	212
0	7223	0.026625	213
0	7257	0.02675	214
0	7291	0.026875	215
0	7325	0.027	216
0	7359	0.027125	217
0	7393	0.02725	218
0	7427	0.027375	219
0	7461	0.0275	220
0	7495	0.027625	221
0	7529	0.02775	222
0	7563	0.027875	223
0	7597	0.028	224
0	7631	0.028125	225
0	7665	0.02825	226
0	7699	0.028375	227
0	7733	0.0285	228
0	7767	0.028625	229
0	7801	0.02875	230
0	7835	0.028875	231
0	7869	0.029	232
0	7903	0.029125	233
0	7937	0.02925	234
0	7971	0.029375	235
0	8005	0.0295	236
0	8039	0.029625	237
0	8073	0.02975	238
0	8107	0.029875	239
0	8141	0.03	240
0	8175	0.030125	241
0	8209	0.03025	242
0	8243	0.030375	243
0	8277	0.0305	244
0	8311	0.030625	245
0	8345	0.03075	246
0	8379	0.030875	247
0	8413	0.031	248
0	8447	0.031125	249
0	8481	0.03125	250
0	8515	0.031375	251
0	8549	0.0315	252
0	8583	0.031625	253
0	8617	0.03175	254
0	8651	0.031875	255
0	8685	0.032	256
0	8719	0.032125	257
0	8753	0.03225	258
0	8787	0.032375	259
0	8821	0.0325	260
0	8855	0.032625	261
0	8889	0.03275	262
0	8923	0.032875	263
0	8957	0.033	264
0	8991	0.033125	265
0	9025	0.03325	266
0	9059	0.033375	267
0	9093	0.0335	268
0	9127	0.033625	269
0	9161	0.03375	270
0	9195	0.033875	271
0	9229	0.034	272
0	9263	0.034125	273
0	9297	0.03425	274
0	9331	0.034375	275
0	9365	0.0345	276
0	9399	0.034625	277
0	9433	0.03475	278
0	9467	0.034875	279
0	9501	0.035	280
0	9535	0.035125	281
0	9569	0.03525	282
0	9603	0.035375	283
0	9637	0.0355	284
0	9671	0.035625	285
0	9705	0.03575	286
0	9739	0.035875	287
0	9773	0.036	288
0	9807	0.036125	289
0	9841	0.03625	290
0	9875	0.036375	291
0	9909	0.0365	292
0	9943	0.036625	293
0	9977	0.03675	294
0	10011	0.036875	295
0	10045	0.037	296
0	10079	0.037125	297
0	10113	0.03725	298
0	10147	0.037375	299
0	10181	0.0375	300
0	10215	0.037625	301
0	10249	0.03775	302
0	10283	0.037875	303
0	10317	0.038	304
0	10351	0.038125	305
0	10385	0.03825	306
0	10419	0.038375	307
0	10453	0.0385	308
0	10487	0.038625	309
0	10521	0.03875	310
0	10555	0.038875	311
0	10589	0.039	312
0	10623	0.039125	313
0	10657	0.03925	314
0	10691	0.039375	315
0	10725	0.0395	316
0	10759	0.039625	317
0	10793	0.03975	318
0	10827	0.039875	319
0	10861	0.04	320
0	10895	0.040125	321
0	10929	0.04025	322
0	10963	0.040375	323
0	10997	0.0405	324
0	11031	0.040625	325
0	11065	0.04075	326
0	11099	0.040875	327
0	11133	0.041	328
0	11167	0.041125	329
0	11201	0.04125	330
0	11235	0.041375	331
0	11269	0.0415	332
0	11303	0.041625	333
0	11337	0.04175	334
0	11371	0.041875	335
0	11405	0.042	336
0	11439	0.042125	337
0	11473	0.04225	338
0	11507	0.042375	339
0	11541	0.0425	340
0	11575	0.042625	341
0	11609	0.04275	342
0	11643	0.042875	343
0	11677	0.043	344
0	11711	0.043125	345
0	11745	0.04325	346
0	11779	0.043375	347
0	11813	0.0435	348
0	11847	0.043625	349
0	11881	0.04375	350
0	11915	0.043875	351
0	11949	0.044	352
0	11983	0.044125	353
0	12017	0.04425	354
0	12051	0.044375	355
0	12085	0.0445	356
0	12119	0.044625	357
0	12153	0.04475	358
0	12187	0.044875	359
0	12221	0.045	360
0	12255	0.045125	361
0	12289	0.04525	362
0	12323	0.045375	363
0	12357	0.0455	364
0	12391	0.045625	365
0	12425	0.04575	366
0	12459	0.045875	367
0	12493	0.046	368
0	12527	0.046125	369
0	12561	0.04625	370
0	12595	0.046375	371
0	12629	0.0465	372
0	12663	0.046625	373
0	12697	0.04675	374
0	12731	0.046875	375
0	12765	0.047	376
0	12799	0.047125	377
0	12833	0.04725	378
0	12867	0.047375	379
0	12901	0.0475	380
0	12935	0.047625	381
0	12969	0.04775	382
0	13003	0.047875	383
0	13037	0.048	384
0	13071	0.048125	385
0	13105	0.04825	386
0	13139	0.048375	387
0	13173	0.0485	388
0	13207	0.048625	389
0	13241	0.04875	390
0	13275	0.048875	391
0	13309	0.049	392
0	13343	0.049125	393
0	13377	0.04925	394
0	13411	0.049375	395
0	13445	0.0495	396
0	13479	0.049625	397
0	13513	0.04975	398
0	13547	0.049875	399
0	13581	0.05	400
0	13615	0.050125	401
0	13649	0.05025	402
0	13683	0.050375	403
0	13717	0.0505	404
0	13751	0.050625	405
0	13785	0.05075	406
0	13819	0.050875	407
0	13853	0.051	408
0	13887	0.051125	409
0	13921	0.05125	410
0	13955	0.051375	411
0	13989	0.0515	412
0	14023	0.051625	413
0	14057	0.05175	414
0	14091	0.051875	415
0	14125	0.052	416
0	14159	0.052125	417
0	14193	0.05225	418
0	14227	0.052375	419
0	14261	0.0525	420
0	14295	0.052625	421
0	14329	0.05275	422
0	14363	0.052875	423
0	14397	0.053	424
0	14431	0.053125	425
0	14465	0.05325	426
0	14499	0.053375	427
0	14533	0.0535	428
0	14567	0.053625	429
0	14601	0.05375	430
0	14635	0.053875	431
0	14669	0.054	432
0	14703	0.054125	433
0	14737	0.05425	434
0	14771	0.054375	435
0	14805	0.0545	436
0	14839	0.054625	437
0	14873	0.05475	438
0	14907	0.054875	439
0	14941	0.055	440
0	14975	0.055125	441
0	15009	0.05525	442
0	15043	0.055375	443
0	15077	0.0555	444
0	15111	0.055625	445
0	15145	0.05575	446
0	15179	0.055875	447
0	15213	0.056	448
0	15247	0.056125	449
0	15281	0.05625	450
0	15315	0.056375	451
0	15349	0.0565	452
0	15383	0.056625	453
0	15417	0.05675	454
0	15451	0.056875	455
0	15485	0.057	456
0	15519	0.057125	457
0	15553	0.05725	458
0	15587	0.057375	459
0	15621	0.0575	460
0	15655	0.057625	461
0	15689	0.05775	462
0	15723	0.057875	463
0	15757	0.058	464
0	15791	0.058125	465
0	15825	0.05825	466
0	15859	0.058375	467
0	15893	0.0585	468
0	15927	0.058625	469
0	15961	0.05875	470
0	15995	0.058875	471
0	16029	0.059	472
0	16063	0.059125	473
0	16097	0.05925	474
0	16131	0.059375	475
0	16165	0.0595	476
0	16199	0.059625	477
0	16233	0.05975	478
0	16267	0.059875	479
0	16301	0.06	480
0	16335	0.060125	481
0	16369	0.06025	482
0	16403	0.060375	483
0	16437	0.0605	484
0	16471	0.060625	485
0	16505	0.06075	486
0	16539	0.060875	487
0	16573	0.061	488
0	16607	0.061125	489
0	16641	0.06125	490
0	16675	0.061375	491
0	16709	0.0615	492
0	16743	0.061625	493
0	16777	0.06175	494
0	16811	0.061875	495
0	16845	0.062	496
0	16879	0.062125	497
0	16913	0.06225	498
0	16947	0.062375	499
0	16981	0.0625	500
0	17015	0.062625	501
0	17049	0.06275	502
0	17083	0.062875	503
0	17117	0.063	504
0	17151	0.063125	505
0	17185	0.06325	506
0	17219	0.063375	507
0	17253	0.0635	508
0	17287	0.063625	509
0	17321	0.06375	510
0	17355	0.063875	511
0	17389	0.064	512
0	17423	0.064125	513
0	17457	0.06425	514
0	17491	0.064375	515
0	17525	0.0645	516
0	17559	0.064625	517
0	17593	0.06475	518
0	17627	0.064875	519
0	17661	0.065	520
0	17695	0.065125	521
0	17729	0.06525	522
0	17763	0.065375	523
0	17797	0.0655	524
0	17831	0.065625	525
0	17865	0.06575	526
0	17899	0.065875	527
0	17933	0.066	528
0	17967	0.066125	529
0	18001	0.06625	530
0	18035	0.066375	531
0	18069	0.0665	532
0	18103	0.066625	533
0	18137	0.06675	534
0	18171	0.066875	535
0	18205	0.067	536
0	18239	0.067125	537
0	18273	0.06725	538
0	18307	0.067375	539
0	18341	0.0675	540
0	18375	0.067625	541
0	18409	0.06775	542
0	18443	0.067875	543
0	18477	0.068	544
0	18511	0.068125	545
0	18545	0.06825	546
0	18579	0.068375	547
0	18613	0.0685	548
0	18647	0.068625	549
0	18681	0.06875	550
0	18715	0.068875	551
0	18749	0.069	552
0	18783	0.069125	553
0	18817	0.06925	554
0	18851	0.069375	555
0	18885	0.0695	556
0	18919	0.069625	557
0	18953	0.06975	558
0	18987	0.069875	559
0	19021	0.07	560
0	19055	0.070125	561
0	19089	0.07025	562
0	19123	0.070375	563
0	19157	0.0705	564
0	19191	0.070625	565
0	19225	0.07075	566
0	19259	0.070875	567
0	19293	0.071	568
0	19327	0.071125	569
0	19361	0.07125	570
0	19395	0.071375	571
0	19429	0.0715	572
0	19463	0.071625	573
0	19497	0.07175	574
0	19531	0.071875	575
0	19565	0.072	576
0	19599	0.072125	577
0	19633	0.07225	578
0	19667	0.072375	579
0	19701	0.0725	580
0	19735	0.072625	581
0	19769	0.07275	582
0	19803	0.072875	583
0	19837	0.073	584
0	19871	0.073125	585
0	19905	0.07325	586
0	19939	0.073375	587
0	19973	0.0735	588
0	20007	0.073625	589
0	20041	0.07375	590
0	20075	0.073875	591
0	20109	0.074	592
0	20143	0.074125	593
0	20177	0.07425	594
0	20211	0.074375	595
0	20245	0.0745	596
0	20279	0.074625	597
0	20313	0.07475	598
0	20347	0.074875	599
0	20381	0.075	600
0	20415	0.075125	601
0	20449	0.07525	602
0	20483	0.075375	603
0	20517	0.0755	604
0	20551	0.075625	605
0	20585	0.07575	606
0	20619	0.075875	607
0	20653	0.076	608
0	20687	0.076125	609
0	20721	0.07625	610
0	20755	0.076375	611
0	20789	0.0765	612
0	20823	0.076625	613
0	20857	0.07675	614
0	20891	0.076875	615
0	20925	0.077	616
0	20959	0.077125	617
0	20993	0.07725	618
0	21027	0.077375	619
0	21061	0.0775	620
0	21095	0.077625	621
0	21129	0.07775	622
0	21163	0.077875	623
0	21197	0.078	624
0	21231	0.078125	625
0	21265	0.07825	626
0	21299	0.078375	627
0	21333	0.0785	628
0	21367	0.078625	629
0	21401	0.07875	630
0	21435	0.078875	631
0	21469	0.079	632
0	21503	0.079125	633
0	21537	0.07925	634
0	21571	0.079375	635
0	21605	0.0795	636
0	21639	0.079625	637
0	21673	0.07975	638
0	21707	0.079875	639
0	21741	0.08	640
0	21775	0.080125	641
0	21809	0.08025	642
0	21843	0.080375	643
0	21877	0.0805	644
0	21911	0.080625	645
0	21945	0.08075	646
0	21979	0.080875	647
0	22013	0.081	648
0	22047	0.081125	649
0	22081	0.08125	650
0	22115	0.081375	651
0	22149	0.0815	652
0	22183	0.081625	653
0	22217	0.08175	654
0	22251	0.081875	655
0	22285	0.082	656
0	22319	0.082125	657
0	22353	0.08225	658
0	22387	0.082375	659
0	22421	0.0825	660
0	22455	0.082625	661
0	22489	0.08275	662
0	22523	0.082875	663
0	22557	0.083	664
0	22591	0.083125	665
0	22625	0.08325	666
0	22659	0.083375	667
0	22693	0.0835	668
0	22727	0.083625	669
0	22761	0.08375	670
0	22795	0.083875	671
0	22829	0.084	672
0	22863	0.084125	673
0	22897	0.08425	674
0	22931	0.084375	675
0	22965	0.0845	676
0	22999	0.084625	677
0	23033	0.08475	678
0	23067	0.084875	679
0	23101	0.085	680
0	23135	0.085125	681
0	23169	0.08525	682
0	23203	0.085375	683
0	23237	0.0855	684
0	23271	0.085625	685
0	23305	0.08575	686
0	23339	0.085875	687
0	23373	0.086	688
0	23407	0.086125	689
0	23441	0.08625	690
0	23475	0.086375	691
0	23509	0.0865	692
0	23543	0.086625	693
0	23577	0.08675	694
0	23611	0.086875	695
0	23645	0.087	696
0	23679	0.087125	697
0	23713	0.08725	698
0	23747	0.087375	699
0	23781	0.0875	700
0	23815	0.087625	701
0	23849	0.08775	702
0	23883	0.087875	703
0	23917	0.088	704
0	23951	0.088125	705
0	23985	0.08825	706
0	24019	0.088375	707
0	24053	0.0885	708
0	24087	0.088625	709
0	24121	0.08875	710
0	24155	0.088875	711
0	24189	0.089	712
0	24223	0.089125	713
0	24257	0.08925	714
0	24291	0.089375	715
0	24325	0.0895	716
0	24359	0.089625	717
0	24393	0.08975	718
0	24427	0.089875	719
0	24461	0.09	720
0	24495	0.090125	721
0	24529	0.09025	722
0	24563	0.090375	723
0	24597	0.0905	724
0	24631	0.090625	725
0	24665	0.09075	726
0	24699	0.090875	727
0	24733	0.091	728
0	24767	0.091125	729
0	24801	0.09125	730
0	24835	0.091375	731
0	24869	0.0915	732
0	24903	0.091625	733
0	24937	0.09175	734
0	24971	0.091875	735
0	25005	0.092	736
0	25039	0.092125	737
0	25073	0.09225	738
0	25107	0.092375	739
0	25141	0.0925	740
0	25175	0.092625	741
0	25209	0.09275	742
0	25243	0.092875	743
0	25277	0.093	744
0	25311	0.093125	745
0	25345	0.09325	746
0	25379	0.093375	747
0	25413	0.0935	748
0	25447	0.093625	749
0	25481	0.09375	750
0	25515	0.093875	751
0	25549	0.094	752
0	25583	0.094125	753
0	25617	0.09425	754
0	25651	0.094375	755
0	25685	0.0945	756
0	25719	0.094625	757
0	25753	0.09475	758
0	25787	0.094875	759
0	25821	0.095	760
0	25855	0.095125	761
0	25889	0.09525	762
0	25923	0.095375	763
0	25957	0.0955	764
0	25991	0.095625	765
0	26025	0.09575	766
0	26059	0.095875	767
0	26093	0.096	768
0	26127	0.096125	769
0	26161	0.09625	770
0	26195	0.096375	771
0	26229	0.0965	772
0	26263	0.096625	773
0	26297	0.09675	774
0	26331	0.096875	775
0	26365	0.097	776
0	26399	0.097125	777
0	26433	0.09725	778
0	26467	0.097375	779
0	26501	0.0975	780
0	26535	0.097625	781
0	26569	0.09775	782
0	26603	0.097875	783
0	26637	0.098	784
0	26671	0.098125	785
0	26705	0.09825	786
0	26739	0.098375	787
0	26773	0.0985	788
0	26807	0.098625	789
0	26841	0.09875	790
0	26875	0.098875	791
0	26909	0.099	792
0	26943	0.099125	793
0	26977	0.09925	794
0	27011	0.099375	795
0	27045	0.0995	796
0	27079	0.099625	797
0	27113	0.09975	798
0	27147	0.099875	799
0	27181	0.1	800
0	27215	0.100125	801
0	27249	0.10025	802
0	27283	0.100375	803
0	27317	0.1005	804
0	27351	0.100625	805
0	27385	0.10075	806
0	27419	0.100875	807
0	27453	0.101	808
0	27487	0.101125	809
0	27521	0.10125	810
0	27555	0.101375	811
0	27589	0.1015	812
0	27623	0.101625	813
0	27657	0.10175	814
0	27691	0.101875	815
0	27725	0.102	816
0	27759	0.102125	817
0	27793	0.10225	818
0	27827	0.102375	819
0	27861	0.1025	820
0	27895	0.102625	821
0	27929	0.10275	822
0	27963	0.102875	823
0	27997	0.103	824
0	28031	0.103125	825
0	28065	0.10325	826
0	28099	0.103375	827
0	28133	0.1035	828
0	28167	0.103625	829
0	28201	0.10375	830
0	28235	0.103875	831
0	28269	0.104	832
0	28303	0.104125	833
0	28337	0.10425	834
0	28371	0.104375	835
0	28405	0.1045	836
0	28439	0.104625	837
0	28473	0.10475	838
0	28507	0.104875	839
0	28541	0.105	840
0	28575	0.105125	841
0	28609	0.10525	842
0	28643	0.105375	843
0	28677	0.1055	844
0	28711	0.105625	845
0	28745	0.10575	846
0	28779	0.105875	847
0	28813	0.106	848
0	28847	0.106125	849
0	28881	0.10625	850
0	28915	0.106375	851
0	28949	0.1065	852
0	28983	0.106625	853
0	29017	0.10675	854
0	29051	0.106875	855
0	29085	0.107	856
0	29119	0.107125	857
0	29153	0.10725	858
0	29187	0.107375	859
0	29221	0.1075	860
0	29255	0.107625	861
0	29289	0.10775	862
0	29323	0.107875	863
0	29357	0.108	864
0	29391	0.108125	865
0	29425	0.10825	866
0	29459	0.108375	867
0	29493	0.1085	868
0	29527	0.108625	869
0	29561	0.10875	870
0	29595	0.108875	871
0	29629	0.109	872
0	29663	0.109125	873
0	29697	0.10925	874
0	29731	0.109375	875
0	29765	0.1095	876
0	29799	0.109625	877
0	29833	0.10975	878
0	29867	0.109875	879
0	29901	0.11	880
0	29935	0.110125	881
0	29969	0.11025	882
0	30003	0.110375	883
0	30037	0.1105	884
0	30071	0.110625	885
0	30105	0.11075	886
0	30139	0.110875	887
0	30173	0.111	888
0	30207	0.111125	889
0	30241	0.11125	890
0	30275	0.111375	891
0	30309	0.1115	892
0	30343	0.111625	893
0	30377	0.11175	894
0	30411	0.111875	895
0	30445	0.112	896
0	30479	0.112125	897
0	30513	0.11225	898
0	30547	0.112375	899
0	30581	0.1125	900
0	30615	0.112625	901
0	30649	0.11275	902
0	30683	0.112875	903
0	30717	0.113	904
0	30751	0.113125	905
0	30785	0.11325	906
0	30819	0.113375	907
0	30853	0.1135	908
0	30887	0.113625	909
0	30921	0.11375	910
0	30955	0.113875	911
0	30989	0.114	912
0	31023	0.114125	913
0	31057	0.11425	914
0	31091	0.114375	915
0	31125	0.1145	916
0	31159	0.114625	917
0	31193	0.11475	918
0	31227	0.114875	919
0	31261	0.115	920
0	31295	0.115125	921
0	31329	0.11525	922
0	31363	0.115375	923
0	31397	0.1155	924
0	31431	0.115625	925
0	31465	0.11575	926
0	31499	0.115875	927
0	31533	0.116	928
0	31567	0.116125	929
0	31601	0.11625	930
0	31635	0.116375	931
0	31669	0.1165	932
0	31703	0.116625	933
0	31737	0.11675	934
0	31771	0.116875	935
0	31805	0.117	936
0	31839	0.117125	937
0	31873	0.11725	938
0	31907	0.117375	939
0	31941	0.1175	940
0	31975	0.117625	941
0	32009	0.11775	942
0	32043	0.117875	943
0	32077	0.118	944
0	32111	0.118125	945
0	32145	0.11825	946
0	32179	0.118375	947
0	32213	0.1185	948
0	32247	0.118625	949
0	32281	0.11875	950
0	32315	0.118875	951
0	32349	0.119	952
0	32383	0.119125	953
0	32417	0.11925	954
0	32451	0.119375	955
0	32485	0.1195	956
0	32519	0.119625	957
0	32553	0.11975	958
0	32587	0.119875	959
0	32621	0.12	960
0	32655	0.120125	961
0	32689	0.12025	962
0	32723	0.120375	963
0	32757	0.1205	964
0	32791	0.120625	965
0	32825	0.12075	966
0	32859	0.120875	967
0	32893	0.121	968
0	32927	0.121125	969
0	32961	0.12125	970
0	32995	0.121375	971
0	33029	0.1215	972
0	33063	0.121625	973
0	33097	0.12175	974
0	33131	0.121875	975
0	33165	0.122	976
0	33199	0.122125	977
0	33233	0.12225	978
0	33267	0.122375	979
0	33301	0.1225	980
0	33335	0.122625	981
0	33369	0.12275	982
0	33403	0.122875	983
0	33437	0.123	984
0	33471	0.123125	985
0	33505	0.12325	986
0	33539	0.123375	987
0	33573	0.1235	988
0	33607	0.123625	989
0	33641	0.12375	990
0	33675	0.123875	991
0	33709	0.124	992
0	33743	0.124125	993
0	33777	0.12425	994
0	33811	0.124375	995
0	33845	0.1245	996
0	33879	0.124625	997
0	33913	0.12475	998
0	33947	0.124875	999
0	33981	0.125	1000
0	34015	0.125125	1001
0	34049	0.12525	1002
0	34083	0.125375	1003
0	34117	0.1255	1004
0	34151	0.125625	1005
0	34185	0.12575	1006
0	34219	0.125875	1007
0	34253	0.126	1008
0	34287	0.126125	1009
0	34321	0.12625	1010
0	34355	0.126375	1011
0	34389	0.1265	1012
0	34423	0.126625	1013
0	34457	0.12675	1014
0	34491	0.126875	1015
0	34525	0.127	1016
0	34559	0.127125	1017
0	34593	0.12725	1018
0	34627	0.127375	1019
0	34661	0.1275	1020
0	34695	0.127625	1021
0	34729	0.12775	1022
0	34763	0.127875	1023
0	34797	0.128	1024
0	34831	0.128125	1025
0	34865	0.12825	1026
0	34899	0.128375	1027
0	34933	0.1285	1028
0	34967	0.128625	1029
0	35001	0.12875	1030
0	35035	0.128875	1031
0	35069	0.129	1032
0	35103	0.129125	1033
0	35137	0.12925	1034
0	35171	0.129375	1035
0	35205	0.1295	1036
0	35239	0.129625	1037
0	35273	0.12975	1038
0	35307	0.129875	1039
0	35341	0.13	1040
0	35375	0.130125	1041
0	35409	0.13025	1042
0	35443	0.130375	1043
0	35477	0.1305	1044
0	35511	0.130625	1045
0	35545	0.13075	1046
0	35579	0.130875	1047
0	35613	0.131	1048
0	35647	0.131125	1049
0	35681	0.13125	1050
0	35715	0.131375	1051
0	35749	0.1315	1052
0	35783	0.131625	1053
0	35817	0.13175	1054
0	35851	0.131875	1055
0	35885	0.132	1056
0	35919	0.132125	1057
0	35953	0.13225	1058
0	35987	0.132375	1059
0	36021	0.1325	1060
0	36055	0.132625	1061
0	36089	0.13275	1062
0	36123	0.132875	1063
0	36157	0.133	1064
0	36191	0.133125	1065
0	36225	0.13325	1066
0	36259	0.133375	1067
0	36293	0.1335	1068
0	36327	0.133625	1069
0	36361	0.13375	1070
0	36395	0.133875	1071
0	36429	0.134	1072
0	36463	0.134125	1073
0	36497	0.13425	1074
0	36531	0.134375	1075
0	36565	0.1345	1076
0	36599	0.134625	1077
0	36633	0.13475	1078
0	36667	0.134875	1079
0	36701	0.135	1080
0	36735	0.135125	1081
0	36769	0.13525	1082
0	36803	0.135375	1083
0	36837	0.1355	1084
0	36871	0.135625	1085
0	36905	0.13575	1086
0	36939	0.135875	1087
0	36973	0.136	1088
0	37007	0.136125	1089
0	37041	0.13625	1090
0	37075	0.136375	1091
0	37109	0.1365	1092
0	37143	0.136625	1093
0	37177	0.13675	1094
0	37211	0.136875	1095
0	37245	0.137	1096
0	37279	0.137125	1097
0	37313	0.13725	1098
0	37347	0.137375	1099
0	37381	0.1375	1100
0	37415	0.137625	1101
0	37449	0.13775	1102
0	37483	0.137875	1103
0	37517	0.138	1104
0	37551	0.138125	1105
0	37585	0.13825	1106
0	37619	0.138375	1107
0	37653	0.1385	1108
0	37687	0.138625	1109
0	37721	0.13875	1110
0	37755	0.138875	1111
0	37789	0.139	1112
0	37823	0.139125	1113
0	37857	0.13925	1114
0	37891	0.139375	1115
0	37925	0.1395	1116
0	37959	0.139625	1117
0	37993	0.13975	1118
0	38027	0.139875	1119
0	38061	0.14	1120
0	38095	0.140125	1121
0	38129	0.14025	1122
0	38163	0.140375	1123
0	38197	0.1405	1124
0	38231	0.140625	1125
0	38265	0.14075	1126
0	38299	0.140875	1127
0	38333	0.141	1128
0	38367	0.141125	1129
0	38401	0.14125	1130
0	38435	0.141375	1131
0	38469	0.1415	1132
0	38503	0.141625	1133
0	38537	0.14175	1134
0	38571	0.141875	1135
0	38605	0.142	1136
0	38639	0.142125	1137
0	38673	0.14225	1138
0	38707	0.142375	1139
0	38741	0.1425	1140
0	38775	0.142625	1141
0	38809	0.14275	1142
0	38843	0.142875	1143
0	38877	0.143	1144
0	38911	0.143125	1145
0	38945	0.14325	1146
0	38979	0.143375	1147
0	39013	0.1435	1148
0	39047	0.143625	1149
0	39081	0.14375	1150
0	39115	0.143875	1151
0	39149	0.144	1152
0	39183	0.144125	1153
0	39217	0.14425	1154
0	39251	0.144375	1155
0	39285	0.1445	1156
0	39319	0.144625	1157
0	39353	0.14475	1158
0	39387	0.144875	1159
0	39421	0.145	1160
0	39455	0.145125	1161
0	39489	0.14525	1162
0	39523	0.145375	1163
0	39557	0.1455	1164
0	39591	0.145625	1165
0	39625	0.14575	1166
0	39659	0.145875	1167
0	39693	0.146	1168
0	39727	0.146125	1169
0	39761	0.14625	1170
0	39795	0.146375	1171
0	39829	0.1465	1172
0	39863	0.146625	1173
0	39897	0.14675	1174
0	39931	0.146875	1175
0	39965	0.147	1176
0	39999	0.147125	1177
0	40033	0.14725	1178
0	40067	0.147375	1179
0	40101	0.1475	1180
0	40135	0.147625	1181
0	40169	0.14775	1182
0	40203	0.147875	1183
0	40237	0.148	1184
0	40271	0.148125	1185
0	40305	0.14825	1186
0	40339	0.148375	1187
0	40373	0.1485	1188
0	40407	0.148625	1189
0	40441	0.14875	1190
0	40475	0.148875	1191
0	40509	0.149	1192
0	40543	0.149125	1193
0	40577	0.14925	1194
0	40611	0.149375	1195
0	40645	0.1495	1196
0	40679	0.149625	1197
0	40713	0.14975	1198
0	40747	0.149875	1199
0	40781	0.15	1200
0	40815	0.150125	1201
0	40849	0.15025	1202
0	40883	0.150375	1203
0	40917	0.1505	1204
0	40951	0.150625	1205
0	40985	0.15075	1206
0	41019	0.150875	1207
0	41053	0.151	1208
0	41087	0.151125	1209
0	41121	0.15125	1210
0	41155	0.151375	1211
0	41189	0.1515	1212
0	41223	0.151625	1213
0	41257	0.15175	1214
0	41291	0.151875	1215
0	41325	0.152	1216
0	41359	0.152125	1217
0	41393	0.15225	1218
0	41427	0.152375	1219
0	41461	0.1525	1220
0	41495	0.152625	1221
0	41529	0.15275	1222
0	41563	0.152875	1223
0	41597	0.153	1224
0	41631	0.153125	1225
0	41665	0.15325	1226
0	41699	0.153375	1227
0	41733	0.1535	1228
0	41767	0.153625	1229
0	41801	0.15375	1230
0	41835	0.153875	1231
0	41869	0.154	1232
0	41903	0.154125	1233
0	41937	0.15425	1234
0	41971	0.154375	1235
0	42005	0.1545	1236
0	42039	0.154625	1237
0	42073	0.15475	1238
0	42107	0.154875	1239
0	42141	0.155	1240
0	42175	0.155125	1241
0	42209	0.15525	1242
0	42243	0.155375	1243
0	42277	0.1555	1244
0	42311	0.155625	1245
0	42345	0.15575	1246
0	42379	0.155875	1247
0	42413	0.156	1248
0	42447	0.156125	1249
0	42481	0.15625	1250
0	42515	0.156375	1251
0	42549	0.1565	1252
0	42583	0.156625	1253
0	42617	0.15675	1254
0	42651	0.156875	1255
0	42685	0.157	1256
0	42719	0.157125	1257
0	42753	0.15725	1258
0	42787	0.157375	1259
0	42821	0.1575	1260
0	42855	0.157625	1261
0	42889	0.15775	1262
0	42923	0.157875	1263
0	42957	0.158	1264
0	42991	0.158125	1265
0	43025	0.15825	1266
0	43059	0.158375	1267
0	43093	0.1585	1268
0	43127	0.158625	1269
0	43161	0.15875	1270
0	43195	0.158875	1271
0	43229	0.159	1272
0	43263	0.159125	1273
0	43297	0.15925	1274
0	43331	0.159375	1275
0	43365	0.1595	1276
0	43399	0.159625	1277
0	43433	0.15975	1278
0	43467	0.159875	1279
0	43501	0.16	1280
0	43535	0.160125	1281
0	43569	0.16025	1282
0	43603	0.160375	1283
0	43637	0.1605	1284
0	43671	0.160625	1285
0	43705	0.16075	1286
0	43739	0.160875	1287
0	43773	0.161	1288
0	43807	0.161125	1289
0	43841	0.16125	1290
0	43875	0.161375	1291
0	43909	0.1615	1292
0	43943	0.161625	1293
0	43977	0.16175	1294
0	44011	0.161875	1295
0	44045	0.162	1296
0	44079	0.162125	1297
0	44113	0.16225	1298
0	44147	0.162375	1299
0	44181	0.1625	1300
0	44215	0.162625	1301
0	44249	0.16275	1302
0	44283	0.162875	1303
0	44317	0.163	1304
0	44351	0.163125	1305
0	44385	0.16325	1306
0	44419	0.163375	1307
0	44453	0.1635	1308
0	44487	0.163625	1309
0	44521	0.16375	1310
0	44555	0.163875	1311
0	44589	0.164	1312
0	44623	0.164125	1313
0	44657	0.16425	1314
0	44691	0.164375	1315
0	44725	0.1645	1316
0	44759	0.164625	1317
0	44793	0.16475	1318
0	44827	0.164875	1319
0	44861	0.165	1320
0	44895	0.165125	1321
0	44929	0.16525	1322
0	44963	0.165375	1323
0	44997	0.1655	1324
0	45031	0.165625	1325
0	45065	0.16575	1326
0	45099	0.165875	1327
0	45133	0.166	1328
0	45167	0.166125	1329
0	45201	0.16625	1330
0	45235	0.166375	1331
0	45269	0.1665	1332
0	45303	0.166625	1333
0	45337	0.16675	1334
0	45371	0.166875	1335
0	45405	0.167	1336
0	45439	0.167125	1337
0	45473	0.16725	1338
0	45507	0.167375	1339
0	45541	0.1675	1340
0	45575	0.167625	1341
0	45609	0.16775	1342
0	45643	0.167875	1343
0	45677	0.168	1344
0	45711	0.168125	1345
0	45745	0.16825	1346
0	45779	0.168375	1347
0	45813	0.1685	1348
0	45847	0.168625	1349
0	45881	0.16875	1350
0	45915	0.168875	1351
0	45949	0.169	1352
0	45983	0.169125	1353
0	46017	0.16925	1354
0	46051	0.169375	1355
0	46085	0.1695	1356
0	46119	0.169625	1357
0	46153	0.16975	1358
0	46187	0.169875	1359